n -t * -s 0  -x 100 -y 200 -Z 0 -z 60  -v circle -c green
n -t * -s 1  -x 200 -y 150 -Z 0 -z 60  -v circle -c green
n -t * -s 2  -x 100 -y 50 -Z 0 -z 60  -v circle -c green
n -t * -s 3  -x 300 -y 200 -Z 0 -z 60  -v circle -c green
n -t * -s 4  -x 300 -y 50 -Z 0 -z 60  -v circle -c green
V -t * -v 1.0a5 -a 0
W -t * -x 350 -y 350
A -t * -n 1 -p 0 -o 0x7fffffff -c 30 -a 1
A -t * -h 1 -m 1073741823 -s 0
+ -t 0.000000000 -s 1 -d -1 -p tcp -e 40 -c 2 -a 0 -i 0 -k AGT 
- -t 0.000000000 -s 1 -d -1 -p tcp -e 40 -c 2 -a 0 -i 0 -k AGT
h -t 0.000000000 -s 1 -d -1 -p tcp -e 40 -c 2 -a 0 -i 0 -k AGT
n -t 0 -s 0 -S DLABEL -l "STA" -L ""
n -t 0 -s 1 -S DLABEL -l "STA" -L ""
n -t 0 -s 2 -S DLABEL -l "STA" -L ""
n -t 0 -s 3 -S DLABEL -l "STA" -L ""
n -t 0 -s 4 -S DLABEL -l "STA" -L ""
n -t 0 -s 1 -S DLABEL -l "AP" -L "STA"
+ -t 0.000000000 -s 1 -d -1 -p AODV -e 48 -c 2 -a 0 -i 0 -k RTR 
- -t 0.000000000 -s 1 -d -1 -p AODV -e 48 -c 2 -a 0 -i 0 -k RTR
h -t 0.000000000 -s 1 -d -1 -p AODV -e 48 -c 2 -a 0 -i 0 -k RTR
r -t 0.000948373 -s 0 -d -1 -p AODV -e 48 -c 2 -a 0 -i 0 -k RTR
r -t 0.000948373 -s 3 -d -1 -p AODV -e 48 -c 2 -a 0 -i 0 -k RTR
+ -t 0.000948373 -s 0 -d 1 -p AODV -e 44 -c 2 -a 0 -i 0 -k RTR 
- -t 0.000948373 -s 0 -d 1 -p AODV -e 44 -c 2 -a 0 -i 0 -k RTR
h -t 0.000948373 -s 0 -d 1 -p AODV -e 44 -c 2 -a 0 -i 0 -k RTR
r -t 0.000948471 -s 2 -d -1 -p AODV -e 48 -c 2 -a 0 -i 0 -k RTR
r -t 0.000948471 -s 4 -d -1 -p AODV -e 48 -c 2 -a 0 -i 0 -k RTR
+ -t 0.003294489 -s 2 -d -1 -p AODV -e 48 -c 2 -a 0 -i 0 -k RTR 
- -t 0.003294489 -s 2 -d -1 -p AODV -e 48 -c 2 -a 0 -i 0 -k RTR
h -t 0.003294489 -s 2 -d -1 -p AODV -e 48 -c 2 -a 0 -i 0 -k RTR
+ -t 0.005493981 -s 1 -d 0 -p tcp -e 40 -c 2 -a 0 -i 0 -k RTR 
- -t 0.005493981 -s 1 -d 0 -p tcp -e 40 -c 2 -a 0 -i 0 -k RTR
h -t 0.005493981 -s 1 -d 0 -p tcp -e 40 -c 2 -a 0 -i 0 -k RTR
+ -t 0.007337123 -s 4 -d -1 -p AODV -e 48 -c 2 -a 0 -i 0 -k RTR 
- -t 0.007337123 -s 4 -d -1 -p AODV -e 48 -c 2 -a 0 -i 0 -k RTR
h -t 0.007337123 -s 4 -d -1 -p AODV -e 48 -c 2 -a 0 -i 0 -k RTR
r -t 0.007679099 -s 0 -d 0 -p tcp -e 40 -c 2 -a 0 -i 0 -k AGT
+ -t 0.007679099 -s 0 -d -1 -p ack -e 40 -c 2 -a 0 -i 1 -k AGT 
- -t 0.007679099 -s 0 -d -1 -p ack -e 40 -c 2 -a 0 -i 1 -k AGT
h -t 0.007679099 -s 0 -d -1 -p ack -e 40 -c 2 -a 0 -i 1 -k AGT
+ -t 0.007679099 -s 0 -d 1 -p ack -e 40 -c 2 -a 0 -i 1 -k RTR 
- -t 0.007679099 -s 0 -d 1 -p ack -e 40 -c 2 -a 0 -i 1 -k RTR
h -t 0.007679099 -s 0 -d 1 -p ack -e 40 -c 2 -a 0 -i 1 -k RTR
r -t 0.008912071 -s 1 -d -1 -p AODV -e 48 -c 2 -a 0 -i 0 -k RTR
r -t 0.008912099 -s 0 -d -1 -p AODV -e 48 -c 2 -a 0 -i 0 -k RTR
r -t 0.008912266 -s 4 -d -1 -p AODV -e 48 -c 2 -a 0 -i 0 -k RTR
r -t 0.008912433 -s 3 -d -1 -p AODV -e 48 -c 2 -a 0 -i 0 -k RTR
+ -t 0.009113133 -s 3 -d -1 -p AODV -e 48 -c 2 -a 0 -i 0 -k RTR 
- -t 0.009113133 -s 3 -d -1 -p AODV -e 48 -c 2 -a 0 -i 0 -k RTR
h -t 0.009113133 -s 3 -d -1 -p AODV -e 48 -c 2 -a 0 -i 0 -k RTR
r -t 0.009950738 -s 1 -d -1 -p AODV -e 48 -c 2 -a 0 -i 0 -k RTR
r -t 0.009950766 -s 3 -d -1 -p AODV -e 48 -c 2 -a 0 -i 0 -k RTR
r -t 0.009950933 -s 2 -d -1 -p AODV -e 48 -c 2 -a 0 -i 0 -k RTR
r -t 0.009951099 -s 0 -d -1 -p AODV -e 48 -c 2 -a 0 -i 0 -k RTR
r -t 0.011049139 -s 1 -d -1 -p AODV -e 48 -c 2 -a 0 -i 0 -k RTR
r -t 0.011049266 -s 4 -d -1 -p AODV -e 48 -c 2 -a 0 -i 0 -k RTR
r -t 0.011049433 -s 0 -d -1 -p AODV -e 48 -c 2 -a 0 -i 0 -k RTR
r -t 0.011049599 -s 2 -d -1 -p AODV -e 48 -c 2 -a 0 -i 0 -k RTR
r -t 0.012680551 -s 1 -d 1 -p ack -e 40 -c 2 -a 0 -i 1 -k AGT
+ -t 0.012680551 -s 1 -d -1 -p tcp -e 1040 -c 2 -a 0 -i 2 -k AGT 
- -t 0.012680551 -s 1 -d -1 -p tcp -e 1040 -c 2 -a 0 -i 2 -k AGT
h -t 0.012680551 -s 1 -d -1 -p tcp -e 1040 -c 2 -a 0 -i 2 -k AGT
+ -t 0.012680551 -s 1 -d -1 -p tcp -e 1040 -c 2 -a 0 -i 3 -k AGT 
- -t 0.012680551 -s 1 -d -1 -p tcp -e 1040 -c 2 -a 0 -i 3 -k AGT
h -t 0.012680551 -s 1 -d -1 -p tcp -e 1040 -c 2 -a 0 -i 3 -k AGT
+ -t 0.012680551 -s 1 -d 0 -p tcp -e 1040 -c 2 -a 0 -i 2 -k RTR 
- -t 0.012680551 -s 1 -d 0 -p tcp -e 1040 -c 2 -a 0 -i 2 -k RTR
h -t 0.012680551 -s 1 -d 0 -p tcp -e 1040 -c 2 -a 0 -i 2 -k RTR
+ -t 0.012680551 -s 1 -d 0 -p tcp -e 1040 -c 2 -a 0 -i 3 -k RTR 
- -t 0.012680551 -s 1 -d 0 -p tcp -e 1040 -c 2 -a 0 -i 3 -k RTR
h -t 0.012680551 -s 1 -d 0 -p tcp -e 1040 -c 2 -a 0 -i 3 -k RTR
r -t 0.022745669 -s 0 -d 0 -p tcp -e 1040 -c 2 -a 0 -i 2 -k AGT
+ -t 0.022745669 -s 0 -d -1 -p ack -e 40 -c 2 -a 0 -i 4 -k AGT 
- -t 0.022745669 -s 0 -d -1 -p ack -e 40 -c 2 -a 0 -i 4 -k AGT
h -t 0.022745669 -s 0 -d -1 -p ack -e 40 -c 2 -a 0 -i 4 -k AGT
+ -t 0.022745669 -s 0 -d 1 -p ack -e 40 -c 2 -a 0 -i 4 -k RTR 
- -t 0.022745669 -s 0 -d 1 -p ack -e 40 -c 2 -a 0 -i 4 -k RTR
h -t 0.022745669 -s 0 -d 1 -p ack -e 40 -c 2 -a 0 -i 4 -k RTR
r -t 0.032751160 -s 0 -d 0 -p tcp -e 1040 -c 2 -a 0 -i 3 -k AGT
+ -t 0.032751160 -s 0 -d -1 -p ack -e 40 -c 2 -a 0 -i 5 -k AGT 
- -t 0.032751160 -s 0 -d -1 -p ack -e 40 -c 2 -a 0 -i 5 -k AGT
h -t 0.032751160 -s 0 -d -1 -p ack -e 40 -c 2 -a 0 -i 5 -k AGT
+ -t 0.032751160 -s 0 -d 1 -p ack -e 40 -c 2 -a 0 -i 5 -k RTR 
- -t 0.032751160 -s 0 -d 1 -p ack -e 40 -c 2 -a 0 -i 5 -k RTR
h -t 0.032751160 -s 0 -d 1 -p ack -e 40 -c 2 -a 0 -i 5 -k RTR
r -t 0.034596278 -s 1 -d 1 -p ack -e 40 -c 2 -a 0 -i 4 -k AGT
+ -t 0.034596278 -s 1 -d -1 -p tcp -e 1040 -c 2 -a 0 -i 6 -k AGT 
- -t 0.034596278 -s 1 -d -1 -p tcp -e 1040 -c 2 -a 0 -i 6 -k AGT
h -t 0.034596278 -s 1 -d -1 -p tcp -e 1040 -c 2 -a 0 -i 6 -k AGT
+ -t 0.034596278 -s 1 -d -1 -p tcp -e 1040 -c 2 -a 0 -i 7 -k AGT 
- -t 0.034596278 -s 1 -d -1 -p tcp -e 1040 -c 2 -a 0 -i 7 -k AGT
h -t 0.034596278 -s 1 -d -1 -p tcp -e 1040 -c 2 -a 0 -i 7 -k AGT
+ -t 0.034596278 -s 1 -d 0 -p tcp -e 1040 -c 2 -a 0 -i 6 -k RTR 
- -t 0.034596278 -s 1 -d 0 -p tcp -e 1040 -c 2 -a 0 -i 6 -k RTR
h -t 0.034596278 -s 1 -d 0 -p tcp -e 1040 -c 2 -a 0 -i 6 -k RTR
+ -t 0.034596278 -s 1 -d 0 -p tcp -e 1040 -c 2 -a 0 -i 7 -k RTR 
- -t 0.034596278 -s 1 -d 0 -p tcp -e 1040 -c 2 -a 0 -i 7 -k RTR
h -t 0.034596278 -s 1 -d 0 -p tcp -e 1040 -c 2 -a 0 -i 7 -k RTR
r -t 0.036821768 -s 1 -d 1 -p ack -e 40 -c 2 -a 0 -i 5 -k AGT
+ -t 0.036821768 -s 1 -d -1 -p tcp -e 1040 -c 2 -a 0 -i 8 -k AGT 
- -t 0.036821768 -s 1 -d -1 -p tcp -e 1040 -c 2 -a 0 -i 8 -k AGT
h -t 0.036821768 -s 1 -d -1 -p tcp -e 1040 -c 2 -a 0 -i 8 -k AGT
+ -t 0.036821768 -s 1 -d -1 -p tcp -e 1040 -c 2 -a 0 -i 9 -k AGT 
- -t 0.036821768 -s 1 -d -1 -p tcp -e 1040 -c 2 -a 0 -i 9 -k AGT
h -t 0.036821768 -s 1 -d -1 -p tcp -e 1040 -c 2 -a 0 -i 9 -k AGT
+ -t 0.036821768 -s 1 -d 0 -p tcp -e 1040 -c 2 -a 0 -i 8 -k RTR 
- -t 0.036821768 -s 1 -d 0 -p tcp -e 1040 -c 2 -a 0 -i 8 -k RTR
h -t 0.036821768 -s 1 -d 0 -p tcp -e 1040 -c 2 -a 0 -i 8 -k RTR
+ -t 0.036821768 -s 1 -d 0 -p tcp -e 1040 -c 2 -a 0 -i 9 -k RTR 
- -t 0.036821768 -s 1 -d 0 -p tcp -e 1040 -c 2 -a 0 -i 9 -k RTR
h -t 0.036821768 -s 1 -d 0 -p tcp -e 1040 -c 2 -a 0 -i 9 -k RTR
r -t 0.046826886 -s 0 -d 0 -p tcp -e 1040 -c 2 -a 0 -i 6 -k AGT
+ -t 0.046826886 -s 0 -d -1 -p ack -e 40 -c 2 -a 0 -i 10 -k AGT 
- -t 0.046826886 -s 0 -d -1 -p ack -e 40 -c 2 -a 0 -i 10 -k AGT
h -t 0.046826886 -s 0 -d -1 -p ack -e 40 -c 2 -a 0 -i 10 -k AGT
+ -t 0.046826886 -s 0 -d 1 -p ack -e 40 -c 2 -a 0 -i 10 -k RTR 
- -t 0.046826886 -s 0 -d 1 -p ack -e 40 -c 2 -a 0 -i 10 -k RTR
h -t 0.046826886 -s 0 -d 1 -p ack -e 40 -c 2 -a 0 -i 10 -k RTR
r -t 0.057012377 -s 0 -d 0 -p tcp -e 1040 -c 2 -a 0 -i 7 -k AGT
+ -t 0.057012377 -s 0 -d -1 -p ack -e 40 -c 2 -a 0 -i 11 -k AGT 
- -t 0.057012377 -s 0 -d -1 -p ack -e 40 -c 2 -a 0 -i 11 -k AGT
h -t 0.057012377 -s 0 -d -1 -p ack -e 40 -c 2 -a 0 -i 11 -k AGT
+ -t 0.057012377 -s 0 -d 1 -p ack -e 40 -c 2 -a 0 -i 11 -k RTR 
- -t 0.057012377 -s 0 -d 1 -p ack -e 40 -c 2 -a 0 -i 11 -k RTR
h -t 0.057012377 -s 0 -d 1 -p ack -e 40 -c 2 -a 0 -i 11 -k RTR
r -t 0.058857495 -s 1 -d 1 -p ack -e 40 -c 2 -a 0 -i 10 -k AGT
+ -t 0.058857495 -s 1 -d -1 -p tcp -e 1040 -c 2 -a 0 -i 12 -k AGT 
- -t 0.058857495 -s 1 -d -1 -p tcp -e 1040 -c 2 -a 0 -i 12 -k AGT
h -t 0.058857495 -s 1 -d -1 -p tcp -e 1040 -c 2 -a 0 -i 12 -k AGT
+ -t 0.058857495 -s 1 -d -1 -p tcp -e 1040 -c 2 -a 0 -i 13 -k AGT 
- -t 0.058857495 -s 1 -d -1 -p tcp -e 1040 -c 2 -a 0 -i 13 -k AGT
h -t 0.058857495 -s 1 -d -1 -p tcp -e 1040 -c 2 -a 0 -i 13 -k AGT
+ -t 0.058857495 -s 1 -d 0 -p tcp -e 1040 -c 2 -a 0 -i 12 -k RTR 
- -t 0.058857495 -s 1 -d 0 -p tcp -e 1040 -c 2 -a 0 -i 12 -k RTR
h -t 0.058857495 -s 1 -d 0 -p tcp -e 1040 -c 2 -a 0 -i 12 -k RTR
+ -t 0.058857495 -s 1 -d 0 -p tcp -e 1040 -c 2 -a 0 -i 13 -k RTR 
- -t 0.058857495 -s 1 -d 0 -p tcp -e 1040 -c 2 -a 0 -i 13 -k RTR
h -t 0.058857495 -s 1 -d 0 -p tcp -e 1040 -c 2 -a 0 -i 13 -k RTR
r -t 0.068722613 -s 0 -d 0 -p tcp -e 1040 -c 2 -a 0 -i 8 -k AGT
+ -t 0.068722613 -s 0 -d -1 -p ack -e 40 -c 2 -a 0 -i 14 -k AGT 
- -t 0.068722613 -s 0 -d -1 -p ack -e 40 -c 2 -a 0 -i 14 -k AGT
h -t 0.068722613 -s 0 -d -1 -p ack -e 40 -c 2 -a 0 -i 14 -k AGT
+ -t 0.068722613 -s 0 -d 1 -p ack -e 40 -c 2 -a 0 -i 14 -k RTR 
- -t 0.068722613 -s 0 -d 1 -p ack -e 40 -c 2 -a 0 -i 14 -k RTR
h -t 0.068722613 -s 0 -d 1 -p ack -e 40 -c 2 -a 0 -i 14 -k RTR
r -t 0.070827731 -s 1 -d 1 -p ack -e 40 -c 2 -a 0 -i 11 -k AGT
+ -t 0.070827731 -s 1 -d -1 -p tcp -e 1040 -c 2 -a 0 -i 15 -k AGT 
- -t 0.070827731 -s 1 -d -1 -p tcp -e 1040 -c 2 -a 0 -i 15 -k AGT
h -t 0.070827731 -s 1 -d -1 -p tcp -e 1040 -c 2 -a 0 -i 15 -k AGT
+ -t 0.070827731 -s 1 -d -1 -p tcp -e 1040 -c 2 -a 0 -i 16 -k AGT 
- -t 0.070827731 -s 1 -d -1 -p tcp -e 1040 -c 2 -a 0 -i 16 -k AGT
h -t 0.070827731 -s 1 -d -1 -p tcp -e 1040 -c 2 -a 0 -i 16 -k AGT
+ -t 0.070827731 -s 1 -d 0 -p tcp -e 1040 -c 2 -a 0 -i 15 -k RTR 
- -t 0.070827731 -s 1 -d 0 -p tcp -e 1040 -c 2 -a 0 -i 15 -k RTR
h -t 0.070827731 -s 1 -d 0 -p tcp -e 1040 -c 2 -a 0 -i 15 -k RTR
+ -t 0.070827731 -s 1 -d 0 -p tcp -e 1040 -c 2 -a 0 -i 16 -k RTR 
- -t 0.070827731 -s 1 -d 0 -p tcp -e 1040 -c 2 -a 0 -i 16 -k RTR
h -t 0.070827731 -s 1 -d 0 -p tcp -e 1040 -c 2 -a 0 -i 16 -k RTR
r -t 0.080732849 -s 0 -d 0 -p tcp -e 1040 -c 2 -a 0 -i 9 -k AGT
+ -t 0.080732849 -s 0 -d -1 -p ack -e 40 -c 2 -a 0 -i 17 -k AGT 
- -t 0.080732849 -s 0 -d -1 -p ack -e 40 -c 2 -a 0 -i 17 -k AGT
h -t 0.080732849 -s 0 -d -1 -p ack -e 40 -c 2 -a 0 -i 17 -k AGT
+ -t 0.080732849 -s 0 -d 1 -p ack -e 40 -c 2 -a 0 -i 17 -k RTR 
- -t 0.080732849 -s 0 -d 1 -p ack -e 40 -c 2 -a 0 -i 17 -k RTR
h -t 0.080732849 -s 0 -d 1 -p ack -e 40 -c 2 -a 0 -i 17 -k RTR
r -t 0.082617967 -s 1 -d 1 -p ack -e 40 -c 2 -a 0 -i 14 -k AGT
+ -t 0.082617967 -s 1 -d -1 -p tcp -e 1040 -c 2 -a 0 -i 18 -k AGT 
- -t 0.082617967 -s 1 -d -1 -p tcp -e 1040 -c 2 -a 0 -i 18 -k AGT
h -t 0.082617967 -s 1 -d -1 -p tcp -e 1040 -c 2 -a 0 -i 18 -k AGT
+ -t 0.082617967 -s 1 -d -1 -p tcp -e 1040 -c 2 -a 0 -i 19 -k AGT 
- -t 0.082617967 -s 1 -d -1 -p tcp -e 1040 -c 2 -a 0 -i 19 -k AGT
h -t 0.082617967 -s 1 -d -1 -p tcp -e 1040 -c 2 -a 0 -i 19 -k AGT
+ -t 0.082617967 -s 1 -d 0 -p tcp -e 1040 -c 2 -a 0 -i 18 -k RTR 
- -t 0.082617967 -s 1 -d 0 -p tcp -e 1040 -c 2 -a 0 -i 18 -k RTR
h -t 0.082617967 -s 1 -d 0 -p tcp -e 1040 -c 2 -a 0 -i 18 -k RTR
+ -t 0.082617967 -s 1 -d 0 -p tcp -e 1040 -c 2 -a 0 -i 19 -k RTR 
- -t 0.082617967 -s 1 -d 0 -p tcp -e 1040 -c 2 -a 0 -i 19 -k RTR
h -t 0.082617967 -s 1 -d 0 -p tcp -e 1040 -c 2 -a 0 -i 19 -k RTR
r -t 0.092463085 -s 0 -d 0 -p tcp -e 1040 -c 2 -a 0 -i 12 -k AGT
+ -t 0.092463085 -s 0 -d -1 -p ack -e 40 -c 2 -a 0 -i 20 -k AGT 
- -t 0.092463085 -s 0 -d -1 -p ack -e 40 -c 2 -a 0 -i 20 -k AGT
h -t 0.092463085 -s 0 -d -1 -p ack -e 40 -c 2 -a 0 -i 20 -k AGT
+ -t 0.092463085 -s 0 -d 1 -p ack -e 40 -c 2 -a 0 -i 20 -k RTR 
- -t 0.092463085 -s 0 -d 1 -p ack -e 40 -c 2 -a 0 -i 20 -k RTR
h -t 0.092463085 -s 0 -d 1 -p ack -e 40 -c 2 -a 0 -i 20 -k RTR
r -t 0.102488576 -s 0 -d 0 -p tcp -e 1040 -c 2 -a 0 -i 13 -k AGT
+ -t 0.102488576 -s 0 -d -1 -p ack -e 40 -c 2 -a 0 -i 21 -k AGT 
- -t 0.102488576 -s 0 -d -1 -p ack -e 40 -c 2 -a 0 -i 21 -k AGT
h -t 0.102488576 -s 0 -d -1 -p ack -e 40 -c 2 -a 0 -i 21 -k AGT
+ -t 0.102488576 -s 0 -d 1 -p ack -e 40 -c 2 -a 0 -i 21 -k RTR 
- -t 0.102488576 -s 0 -d 1 -p ack -e 40 -c 2 -a 0 -i 21 -k RTR
h -t 0.102488576 -s 0 -d 1 -p ack -e 40 -c 2 -a 0 -i 21 -k RTR
r -t 0.104373694 -s 1 -d 1 -p ack -e 40 -c 2 -a 0 -i 17 -k AGT
+ -t 0.104373694 -s 1 -d -1 -p tcp -e 1040 -c 2 -a 0 -i 22 -k AGT 
- -t 0.104373694 -s 1 -d -1 -p tcp -e 1040 -c 2 -a 0 -i 22 -k AGT
h -t 0.104373694 -s 1 -d -1 -p tcp -e 1040 -c 2 -a 0 -i 22 -k AGT
+ -t 0.104373694 -s 1 -d -1 -p tcp -e 1040 -c 2 -a 0 -i 23 -k AGT 
- -t 0.104373694 -s 1 -d -1 -p tcp -e 1040 -c 2 -a 0 -i 23 -k AGT
h -t 0.104373694 -s 1 -d -1 -p tcp -e 1040 -c 2 -a 0 -i 23 -k AGT
+ -t 0.104373694 -s 1 -d 0 -p tcp -e 1040 -c 2 -a 0 -i 22 -k RTR 
- -t 0.104373694 -s 1 -d 0 -p tcp -e 1040 -c 2 -a 0 -i 22 -k RTR
h -t 0.104373694 -s 1 -d 0 -p tcp -e 1040 -c 2 -a 0 -i 22 -k RTR
+ -t 0.104373694 -s 1 -d 0 -p tcp -e 1040 -c 2 -a 0 -i 23 -k RTR 
- -t 0.104373694 -s 1 -d 0 -p tcp -e 1040 -c 2 -a 0 -i 23 -k RTR
h -t 0.104373694 -s 1 -d 0 -p tcp -e 1040 -c 2 -a 0 -i 23 -k RTR
r -t 0.114238812 -s 0 -d 0 -p tcp -e 1040 -c 2 -a 0 -i 15 -k AGT
+ -t 0.114238812 -s 0 -d -1 -p ack -e 40 -c 2 -a 0 -i 24 -k AGT 
- -t 0.114238812 -s 0 -d -1 -p ack -e 40 -c 2 -a 0 -i 24 -k AGT
h -t 0.114238812 -s 0 -d -1 -p ack -e 40 -c 2 -a 0 -i 24 -k AGT
+ -t 0.114238812 -s 0 -d 1 -p ack -e 40 -c 2 -a 0 -i 24 -k RTR 
- -t 0.114238812 -s 0 -d 1 -p ack -e 40 -c 2 -a 0 -i 24 -k RTR
h -t 0.114238812 -s 0 -d 1 -p ack -e 40 -c 2 -a 0 -i 24 -k RTR
r -t 0.124284303 -s 0 -d 0 -p tcp -e 1040 -c 2 -a 0 -i 16 -k AGT
+ -t 0.124284303 -s 0 -d -1 -p ack -e 40 -c 2 -a 0 -i 25 -k AGT 
- -t 0.124284303 -s 0 -d -1 -p ack -e 40 -c 2 -a 0 -i 25 -k AGT
h -t 0.124284303 -s 0 -d -1 -p ack -e 40 -c 2 -a 0 -i 25 -k AGT
+ -t 0.124284303 -s 0 -d 1 -p ack -e 40 -c 2 -a 0 -i 25 -k RTR 
- -t 0.124284303 -s 0 -d 1 -p ack -e 40 -c 2 -a 0 -i 25 -k RTR
h -t 0.124284303 -s 0 -d 1 -p ack -e 40 -c 2 -a 0 -i 25 -k RTR
r -t 0.134309793 -s 0 -d 0 -p tcp -e 1040 -c 2 -a 0 -i 18 -k AGT
+ -t 0.134309793 -s 0 -d -1 -p ack -e 40 -c 2 -a 0 -i 26 -k AGT 
- -t 0.134309793 -s 0 -d -1 -p ack -e 40 -c 2 -a 0 -i 26 -k AGT
h -t 0.134309793 -s 0 -d -1 -p ack -e 40 -c 2 -a 0 -i 26 -k AGT
+ -t 0.134309793 -s 0 -d 1 -p ack -e 40 -c 2 -a 0 -i 26 -k RTR 
- -t 0.134309793 -s 0 -d 1 -p ack -e 40 -c 2 -a 0 -i 26 -k RTR
h -t 0.134309793 -s 0 -d 1 -p ack -e 40 -c 2 -a 0 -i 26 -k RTR
r -t 0.136194912 -s 1 -d 1 -p ack -e 40 -c 2 -a 0 -i 20 -k AGT
+ -t 0.136194912 -s 1 -d -1 -p tcp -e 1040 -c 2 -a 0 -i 27 -k AGT 
- -t 0.136194912 -s 1 -d -1 -p tcp -e 1040 -c 2 -a 0 -i 27 -k AGT
h -t 0.136194912 -s 1 -d -1 -p tcp -e 1040 -c 2 -a 0 -i 27 -k AGT
+ -t 0.136194912 -s 1 -d -1 -p tcp -e 1040 -c 2 -a 0 -i 28 -k AGT 
- -t 0.136194912 -s 1 -d -1 -p tcp -e 1040 -c 2 -a 0 -i 28 -k AGT
h -t 0.136194912 -s 1 -d -1 -p tcp -e 1040 -c 2 -a 0 -i 28 -k AGT
+ -t 0.136194912 -s 1 -d 0 -p tcp -e 1040 -c 2 -a 0 -i 27 -k RTR 
- -t 0.136194912 -s 1 -d 0 -p tcp -e 1040 -c 2 -a 0 -i 27 -k RTR
h -t 0.136194912 -s 1 -d 0 -p tcp -e 1040 -c 2 -a 0 -i 27 -k RTR
+ -t 0.136194912 -s 1 -d 0 -p tcp -e 1040 -c 2 -a 0 -i 28 -k RTR 
- -t 0.136194912 -s 1 -d 0 -p tcp -e 1040 -c 2 -a 0 -i 28 -k RTR
h -t 0.136194912 -s 1 -d 0 -p tcp -e 1040 -c 2 -a 0 -i 28 -k RTR
r -t 0.138080402 -s 1 -d 1 -p ack -e 40 -c 2 -a 0 -i 21 -k AGT
+ -t 0.138080402 -s 1 -d -1 -p tcp -e 1040 -c 2 -a 0 -i 29 -k AGT 
- -t 0.138080402 -s 1 -d -1 -p tcp -e 1040 -c 2 -a 0 -i 29 -k AGT
h -t 0.138080402 -s 1 -d -1 -p tcp -e 1040 -c 2 -a 0 -i 29 -k AGT
+ -t 0.138080402 -s 1 -d -1 -p tcp -e 1040 -c 2 -a 0 -i 30 -k AGT 
- -t 0.138080402 -s 1 -d -1 -p tcp -e 1040 -c 2 -a 0 -i 30 -k AGT
h -t 0.138080402 -s 1 -d -1 -p tcp -e 1040 -c 2 -a 0 -i 30 -k AGT
+ -t 0.138080402 -s 1 -d 0 -p tcp -e 1040 -c 2 -a 0 -i 29 -k RTR 
- -t 0.138080402 -s 1 -d 0 -p tcp -e 1040 -c 2 -a 0 -i 29 -k RTR
h -t 0.138080402 -s 1 -d 0 -p tcp -e 1040 -c 2 -a 0 -i 29 -k RTR
+ -t 0.138080402 -s 1 -d 0 -p tcp -e 1040 -c 2 -a 0 -i 30 -k RTR 
- -t 0.138080402 -s 1 -d 0 -p tcp -e 1040 -c 2 -a 0 -i 30 -k RTR
h -t 0.138080402 -s 1 -d 0 -p tcp -e 1040 -c 2 -a 0 -i 30 -k RTR
r -t 0.140025893 -s 1 -d 1 -p ack -e 40 -c 2 -a 0 -i 24 -k AGT
+ -t 0.140025893 -s 1 -d -1 -p tcp -e 1040 -c 2 -a 0 -i 31 -k AGT 
- -t 0.140025893 -s 1 -d -1 -p tcp -e 1040 -c 2 -a 0 -i 31 -k AGT
h -t 0.140025893 -s 1 -d -1 -p tcp -e 1040 -c 2 -a 0 -i 31 -k AGT
+ -t 0.140025893 -s 1 -d -1 -p tcp -e 1040 -c 2 -a 0 -i 32 -k AGT 
- -t 0.140025893 -s 1 -d -1 -p tcp -e 1040 -c 2 -a 0 -i 32 -k AGT
h -t 0.140025893 -s 1 -d -1 -p tcp -e 1040 -c 2 -a 0 -i 32 -k AGT
+ -t 0.140025893 -s 1 -d 0 -p tcp -e 1040 -c 2 -a 0 -i 31 -k RTR 
- -t 0.140025893 -s 1 -d 0 -p tcp -e 1040 -c 2 -a 0 -i 31 -k RTR
h -t 0.140025893 -s 1 -d 0 -p tcp -e 1040 -c 2 -a 0 -i 31 -k RTR
+ -t 0.140025893 -s 1 -d 0 -p tcp -e 1040 -c 2 -a 0 -i 32 -k RTR 
- -t 0.140025893 -s 1 -d 0 -p tcp -e 1040 -c 2 -a 0 -i 32 -k RTR
h -t 0.140025893 -s 1 -d 0 -p tcp -e 1040 -c 2 -a 0 -i 32 -k RTR
r -t 0.142997384 -s 1 -d 1 -p ack -e 40 -c 2 -a 0 -i 25 -k AGT
+ -t 0.142997384 -s 1 -d -1 -p tcp -e 1040 -c 2 -a 0 -i 33 -k AGT 
- -t 0.142997384 -s 1 -d -1 -p tcp -e 1040 -c 2 -a 0 -i 33 -k AGT
h -t 0.142997384 -s 1 -d -1 -p tcp -e 1040 -c 2 -a 0 -i 33 -k AGT
+ -t 0.142997384 -s 1 -d -1 -p tcp -e 1040 -c 2 -a 0 -i 34 -k AGT 
- -t 0.142997384 -s 1 -d -1 -p tcp -e 1040 -c 2 -a 0 -i 34 -k AGT
h -t 0.142997384 -s 1 -d -1 -p tcp -e 1040 -c 2 -a 0 -i 34 -k AGT
+ -t 0.142997384 -s 1 -d 0 -p tcp -e 1040 -c 2 -a 0 -i 33 -k RTR 
- -t 0.142997384 -s 1 -d 0 -p tcp -e 1040 -c 2 -a 0 -i 33 -k RTR
h -t 0.142997384 -s 1 -d 0 -p tcp -e 1040 -c 2 -a 0 -i 33 -k RTR
+ -t 0.142997384 -s 1 -d 0 -p tcp -e 1040 -c 2 -a 0 -i 34 -k RTR 
- -t 0.142997384 -s 1 -d 0 -p tcp -e 1040 -c 2 -a 0 -i 34 -k RTR
h -t 0.142997384 -s 1 -d 0 -p tcp -e 1040 -c 2 -a 0 -i 34 -k RTR
r -t 0.145002874 -s 1 -d 1 -p ack -e 40 -c 2 -a 0 -i 26 -k AGT
+ -t 0.145002874 -s 1 -d -1 -p tcp -e 1040 -c 2 -a 0 -i 35 -k AGT 
- -t 0.145002874 -s 1 -d -1 -p tcp -e 1040 -c 2 -a 0 -i 35 -k AGT
h -t 0.145002874 -s 1 -d -1 -p tcp -e 1040 -c 2 -a 0 -i 35 -k AGT
+ -t 0.145002874 -s 1 -d -1 -p tcp -e 1040 -c 2 -a 0 -i 36 -k AGT 
- -t 0.145002874 -s 1 -d -1 -p tcp -e 1040 -c 2 -a 0 -i 36 -k AGT
h -t 0.145002874 -s 1 -d -1 -p tcp -e 1040 -c 2 -a 0 -i 36 -k AGT
+ -t 0.145002874 -s 1 -d 0 -p tcp -e 1040 -c 2 -a 0 -i 35 -k RTR 
- -t 0.145002874 -s 1 -d 0 -p tcp -e 1040 -c 2 -a 0 -i 35 -k RTR
h -t 0.145002874 -s 1 -d 0 -p tcp -e 1040 -c 2 -a 0 -i 35 -k RTR
+ -t 0.145002874 -s 1 -d 0 -p tcp -e 1040 -c 2 -a 0 -i 36 -k RTR 
- -t 0.145002874 -s 1 -d 0 -p tcp -e 1040 -c 2 -a 0 -i 36 -k RTR
h -t 0.145002874 -s 1 -d 0 -p tcp -e 1040 -c 2 -a 0 -i 36 -k RTR
r -t 0.155287992 -s 0 -d 0 -p tcp -e 1040 -c 2 -a 0 -i 19 -k AGT
+ -t 0.155287992 -s 0 -d -1 -p ack -e 40 -c 2 -a 0 -i 37 -k AGT 
- -t 0.155287992 -s 0 -d -1 -p ack -e 40 -c 2 -a 0 -i 37 -k AGT
h -t 0.155287992 -s 0 -d -1 -p ack -e 40 -c 2 -a 0 -i 37 -k AGT
+ -t 0.155287992 -s 0 -d 1 -p ack -e 40 -c 2 -a 0 -i 37 -k RTR 
- -t 0.155287992 -s 0 -d 1 -p ack -e 40 -c 2 -a 0 -i 37 -k RTR
h -t 0.155287992 -s 0 -d 1 -p ack -e 40 -c 2 -a 0 -i 37 -k RTR
r -t 0.165113483 -s 0 -d 0 -p tcp -e 1040 -c 2 -a 0 -i 22 -k AGT
+ -t 0.165113483 -s 0 -d -1 -p ack -e 40 -c 2 -a 0 -i 38 -k AGT 
- -t 0.165113483 -s 0 -d -1 -p ack -e 40 -c 2 -a 0 -i 38 -k AGT
h -t 0.165113483 -s 0 -d -1 -p ack -e 40 -c 2 -a 0 -i 38 -k AGT
+ -t 0.165113483 -s 0 -d 1 -p ack -e 40 -c 2 -a 0 -i 38 -k RTR 
- -t 0.165113483 -s 0 -d 1 -p ack -e 40 -c 2 -a 0 -i 38 -k RTR
h -t 0.165113483 -s 0 -d 1 -p ack -e 40 -c 2 -a 0 -i 38 -k RTR
r -t 0.175158974 -s 0 -d 0 -p tcp -e 1040 -c 2 -a 0 -i 23 -k AGT
+ -t 0.175158974 -s 0 -d -1 -p ack -e 40 -c 2 -a 0 -i 39 -k AGT 
- -t 0.175158974 -s 0 -d -1 -p ack -e 40 -c 2 -a 0 -i 39 -k AGT
h -t 0.175158974 -s 0 -d -1 -p ack -e 40 -c 2 -a 0 -i 39 -k AGT
+ -t 0.175158974 -s 0 -d 1 -p ack -e 40 -c 2 -a 0 -i 39 -k RTR 
- -t 0.175158974 -s 0 -d 1 -p ack -e 40 -c 2 -a 0 -i 39 -k RTR
h -t 0.175158974 -s 0 -d 1 -p ack -e 40 -c 2 -a 0 -i 39 -k RTR
r -t 0.177244092 -s 1 -d 1 -p ack -e 40 -c 2 -a 0 -i 37 -k AGT
+ -t 0.177244092 -s 1 -d -1 -p tcp -e 1040 -c 2 -a 0 -i 40 -k AGT 
- -t 0.177244092 -s 1 -d -1 -p tcp -e 1040 -c 2 -a 0 -i 40 -k AGT
h -t 0.177244092 -s 1 -d -1 -p tcp -e 1040 -c 2 -a 0 -i 40 -k AGT
+ -t 0.177244092 -s 1 -d -1 -p tcp -e 1040 -c 2 -a 0 -i 41 -k AGT 
- -t 0.177244092 -s 1 -d -1 -p tcp -e 1040 -c 2 -a 0 -i 41 -k AGT
h -t 0.177244092 -s 1 -d -1 -p tcp -e 1040 -c 2 -a 0 -i 41 -k AGT
+ -t 0.177244092 -s 1 -d 0 -p tcp -e 1040 -c 2 -a 0 -i 40 -k RTR 
- -t 0.177244092 -s 1 -d 0 -p tcp -e 1040 -c 2 -a 0 -i 40 -k RTR
h -t 0.177244092 -s 1 -d 0 -p tcp -e 1040 -c 2 -a 0 -i 40 -k RTR
+ -t 0.177244092 -s 1 -d 0 -p tcp -e 1040 -c 2 -a 0 -i 41 -k RTR 
- -t 0.177244092 -s 1 -d 0 -p tcp -e 1040 -c 2 -a 0 -i 41 -k RTR
h -t 0.177244092 -s 1 -d 0 -p tcp -e 1040 -c 2 -a 0 -i 41 -k RTR
r -t 0.187129210 -s 0 -d 0 -p tcp -e 1040 -c 2 -a 0 -i 27 -k AGT
+ -t 0.187129210 -s 0 -d -1 -p ack -e 40 -c 2 -a 0 -i 42 -k AGT 
- -t 0.187129210 -s 0 -d -1 -p ack -e 40 -c 2 -a 0 -i 42 -k AGT
h -t 0.187129210 -s 0 -d -1 -p ack -e 40 -c 2 -a 0 -i 42 -k AGT
+ -t 0.187129210 -s 0 -d 1 -p ack -e 40 -c 2 -a 0 -i 42 -k RTR 
- -t 0.187129210 -s 0 -d 1 -p ack -e 40 -c 2 -a 0 -i 42 -k RTR
h -t 0.187129210 -s 0 -d 1 -p ack -e 40 -c 2 -a 0 -i 42 -k RTR
r -t 0.189054328 -s 1 -d 1 -p ack -e 40 -c 2 -a 0 -i 38 -k AGT
+ -t 0.189054328 -s 1 -d -1 -p tcp -e 1040 -c 2 -a 0 -i 43 -k AGT 
- -t 0.189054328 -s 1 -d -1 -p tcp -e 1040 -c 2 -a 0 -i 43 -k AGT
h -t 0.189054328 -s 1 -d -1 -p tcp -e 1040 -c 2 -a 0 -i 43 -k AGT
+ -t 0.189054328 -s 1 -d -1 -p tcp -e 1040 -c 2 -a 0 -i 44 -k AGT 
- -t 0.189054328 -s 1 -d -1 -p tcp -e 1040 -c 2 -a 0 -i 44 -k AGT
h -t 0.189054328 -s 1 -d -1 -p tcp -e 1040 -c 2 -a 0 -i 44 -k AGT
+ -t 0.189054328 -s 1 -d 0 -p tcp -e 1040 -c 2 -a 0 -i 43 -k RTR 
- -t 0.189054328 -s 1 -d 0 -p tcp -e 1040 -c 2 -a 0 -i 43 -k RTR
h -t 0.189054328 -s 1 -d 0 -p tcp -e 1040 -c 2 -a 0 -i 43 -k RTR
+ -t 0.189054328 -s 1 -d 0 -p tcp -e 1040 -c 2 -a 0 -i 44 -k RTR 
- -t 0.189054328 -s 1 -d 0 -p tcp -e 1040 -c 2 -a 0 -i 44 -k RTR
h -t 0.189054328 -s 1 -d 0 -p tcp -e 1040 -c 2 -a 0 -i 44 -k RTR
r -t 0.190959819 -s 1 -d 1 -p ack -e 40 -c 2 -a 0 -i 39 -k AGT
+ -t 0.190959819 -s 1 -d -1 -p tcp -e 1040 -c 2 -a 0 -i 45 -k AGT 
- -t 0.190959819 -s 1 -d -1 -p tcp -e 1040 -c 2 -a 0 -i 45 -k AGT
h -t 0.190959819 -s 1 -d -1 -p tcp -e 1040 -c 2 -a 0 -i 45 -k AGT
+ -t 0.190959819 -s 1 -d -1 -p tcp -e 1040 -c 2 -a 0 -i 46 -k AGT 
- -t 0.190959819 -s 1 -d -1 -p tcp -e 1040 -c 2 -a 0 -i 46 -k AGT
h -t 0.190959819 -s 1 -d -1 -p tcp -e 1040 -c 2 -a 0 -i 46 -k AGT
+ -t 0.190959819 -s 1 -d 0 -p tcp -e 1040 -c 2 -a 0 -i 45 -k RTR 
- -t 0.190959819 -s 1 -d 0 -p tcp -e 1040 -c 2 -a 0 -i 45 -k RTR
h -t 0.190959819 -s 1 -d 0 -p tcp -e 1040 -c 2 -a 0 -i 45 -k RTR
+ -t 0.190959819 -s 1 -d 0 -p tcp -e 1040 -c 2 -a 0 -i 46 -k RTR 
- -t 0.190959819 -s 1 -d 0 -p tcp -e 1040 -c 2 -a 0 -i 46 -k RTR
h -t 0.190959819 -s 1 -d 0 -p tcp -e 1040 -c 2 -a 0 -i 46 -k RTR
r -t 0.200824937 -s 0 -d 0 -p tcp -e 1040 -c 2 -a 0 -i 28 -k AGT
+ -t 0.200824937 -s 0 -d -1 -p ack -e 40 -c 2 -a 0 -i 47 -k AGT 
- -t 0.200824937 -s 0 -d -1 -p ack -e 40 -c 2 -a 0 -i 47 -k AGT
h -t 0.200824937 -s 0 -d -1 -p ack -e 40 -c 2 -a 0 -i 47 -k AGT
+ -t 0.200824937 -s 0 -d 1 -p ack -e 40 -c 2 -a 0 -i 47 -k RTR 
- -t 0.200824937 -s 0 -d 1 -p ack -e 40 -c 2 -a 0 -i 47 -k RTR
h -t 0.200824937 -s 0 -d 1 -p ack -e 40 -c 2 -a 0 -i 47 -k RTR
r -t 0.210650427 -s 0 -d 0 -p tcp -e 1040 -c 2 -a 0 -i 29 -k AGT
+ -t 0.210650427 -s 0 -d -1 -p ack -e 40 -c 2 -a 0 -i 48 -k AGT 
- -t 0.210650427 -s 0 -d -1 -p ack -e 40 -c 2 -a 0 -i 48 -k AGT
h -t 0.210650427 -s 0 -d -1 -p ack -e 40 -c 2 -a 0 -i 48 -k AGT
+ -t 0.210650427 -s 0 -d 1 -p ack -e 40 -c 2 -a 0 -i 48 -k RTR 
- -t 0.210650427 -s 0 -d 1 -p ack -e 40 -c 2 -a 0 -i 48 -k RTR
h -t 0.210650427 -s 0 -d 1 -p ack -e 40 -c 2 -a 0 -i 48 -k RTR
r -t 0.220715918 -s 0 -d 0 -p tcp -e 1040 -c 2 -a 0 -i 30 -k AGT
+ -t 0.220715918 -s 0 -d -1 -p ack -e 40 -c 2 -a 0 -i 49 -k AGT 
- -t 0.220715918 -s 0 -d -1 -p ack -e 40 -c 2 -a 0 -i 49 -k AGT
h -t 0.220715918 -s 0 -d -1 -p ack -e 40 -c 2 -a 0 -i 49 -k AGT
+ -t 0.220715918 -s 0 -d 1 -p ack -e 40 -c 2 -a 0 -i 49 -k RTR 
- -t 0.220715918 -s 0 -d 1 -p ack -e 40 -c 2 -a 0 -i 49 -k RTR
h -t 0.220715918 -s 0 -d 1 -p ack -e 40 -c 2 -a 0 -i 49 -k RTR
r -t 0.222561036 -s 1 -d 1 -p ack -e 40 -c 2 -a 0 -i 42 -k AGT
+ -t 0.222561036 -s 1 -d -1 -p tcp -e 1040 -c 2 -a 0 -i 50 -k AGT 
- -t 0.222561036 -s 1 -d -1 -p tcp -e 1040 -c 2 -a 0 -i 50 -k AGT
h -t 0.222561036 -s 1 -d -1 -p tcp -e 1040 -c 2 -a 0 -i 50 -k AGT
+ -t 0.222561036 -s 1 -d -1 -p tcp -e 1040 -c 2 -a 0 -i 51 -k AGT 
- -t 0.222561036 -s 1 -d -1 -p tcp -e 1040 -c 2 -a 0 -i 51 -k AGT
h -t 0.222561036 -s 1 -d -1 -p tcp -e 1040 -c 2 -a 0 -i 51 -k AGT
+ -t 0.222561036 -s 1 -d 0 -p tcp -e 1040 -c 2 -a 0 -i 50 -k RTR 
- -t 0.222561036 -s 1 -d 0 -p tcp -e 1040 -c 2 -a 0 -i 50 -k RTR
h -t 0.222561036 -s 1 -d 0 -p tcp -e 1040 -c 2 -a 0 -i 50 -k RTR
+ -t 0.222561036 -s 1 -d 0 -p tcp -e 1040 -c 2 -a 0 -i 51 -k RTR 
- -t 0.222561036 -s 1 -d 0 -p tcp -e 1040 -c 2 -a 0 -i 51 -k RTR
h -t 0.222561036 -s 1 -d 0 -p tcp -e 1040 -c 2 -a 0 -i 51 -k RTR
r -t 0.224666527 -s 1 -d 1 -p ack -e 40 -c 2 -a 0 -i 47 -k AGT
+ -t 0.224666527 -s 1 -d -1 -p tcp -e 1040 -c 2 -a 0 -i 52 -k AGT 
- -t 0.224666527 -s 1 -d -1 -p tcp -e 1040 -c 2 -a 0 -i 52 -k AGT
h -t 0.224666527 -s 1 -d -1 -p tcp -e 1040 -c 2 -a 0 -i 52 -k AGT
+ -t 0.224666527 -s 1 -d -1 -p tcp -e 1040 -c 2 -a 0 -i 53 -k AGT 
- -t 0.224666527 -s 1 -d -1 -p tcp -e 1040 -c 2 -a 0 -i 53 -k AGT
h -t 0.224666527 -s 1 -d -1 -p tcp -e 1040 -c 2 -a 0 -i 53 -k AGT
+ -t 0.224666527 -s 1 -d 0 -p tcp -e 1040 -c 2 -a 0 -i 52 -k RTR 
- -t 0.224666527 -s 1 -d 0 -p tcp -e 1040 -c 2 -a 0 -i 52 -k RTR
h -t 0.224666527 -s 1 -d 0 -p tcp -e 1040 -c 2 -a 0 -i 52 -k RTR
+ -t 0.224666527 -s 1 -d 0 -p tcp -e 1040 -c 2 -a 0 -i 53 -k RTR 
- -t 0.224666527 -s 1 -d 0 -p tcp -e 1040 -c 2 -a 0 -i 53 -k RTR
h -t 0.224666527 -s 1 -d 0 -p tcp -e 1040 -c 2 -a 0 -i 53 -k RTR
r -t 0.236078390 -s 0 -d 0 -p tcp -e 1040 -c 2 -a 0 -i 31 -k AGT
+ -t 0.236078390 -s 0 -d -1 -p ack -e 40 -c 2 -a 0 -i 54 -k AGT 
- -t 0.236078390 -s 0 -d -1 -p ack -e 40 -c 2 -a 0 -i 54 -k AGT
h -t 0.236078390 -s 0 -d -1 -p ack -e 40 -c 2 -a 0 -i 54 -k AGT
+ -t 0.236078390 -s 0 -d 1 -p ack -e 40 -c 2 -a 0 -i 54 -k RTR 
- -t 0.236078390 -s 0 -d 1 -p ack -e 40 -c 2 -a 0 -i 54 -k RTR
h -t 0.236078390 -s 0 -d 1 -p ack -e 40 -c 2 -a 0 -i 54 -k RTR
r -t 0.247249881 -s 0 -d 0 -p tcp -e 1040 -c 2 -a 0 -i 32 -k AGT
+ -t 0.247249881 -s 0 -d -1 -p ack -e 40 -c 2 -a 0 -i 55 -k AGT 
- -t 0.247249881 -s 0 -d -1 -p ack -e 40 -c 2 -a 0 -i 55 -k AGT
h -t 0.247249881 -s 0 -d -1 -p ack -e 40 -c 2 -a 0 -i 55 -k AGT
+ -t 0.247249881 -s 0 -d 1 -p ack -e 40 -c 2 -a 0 -i 55 -k RTR 
- -t 0.247249881 -s 0 -d 1 -p ack -e 40 -c 2 -a 0 -i 55 -k RTR
h -t 0.247249881 -s 0 -d 1 -p ack -e 40 -c 2 -a 0 -i 55 -k RTR
r -t 0.249454999 -s 1 -d 1 -p ack -e 40 -c 2 -a 0 -i 48 -k AGT
+ -t 0.249454999 -s 1 -d -1 -p tcp -e 1040 -c 2 -a 0 -i 56 -k AGT 
- -t 0.249454999 -s 1 -d -1 -p tcp -e 1040 -c 2 -a 0 -i 56 -k AGT
h -t 0.249454999 -s 1 -d -1 -p tcp -e 1040 -c 2 -a 0 -i 56 -k AGT
+ -t 0.249454999 -s 1 -d -1 -p tcp -e 1040 -c 2 -a 0 -i 57 -k AGT 
- -t 0.249454999 -s 1 -d -1 -p tcp -e 1040 -c 2 -a 0 -i 57 -k AGT
h -t 0.249454999 -s 1 -d -1 -p tcp -e 1040 -c 2 -a 0 -i 57 -k AGT
+ -t 0.249454999 -s 1 -d 0 -p tcp -e 1040 -c 2 -a 0 -i 56 -k RTR 
- -t 0.249454999 -s 1 -d 0 -p tcp -e 1040 -c 2 -a 0 -i 56 -k RTR
h -t 0.249454999 -s 1 -d 0 -p tcp -e 1040 -c 2 -a 0 -i 56 -k RTR
+ -t 0.249454999 -s 1 -d 0 -p tcp -e 1040 -c 2 -a 0 -i 57 -k RTR 
- -t 0.249454999 -s 1 -d 0 -p tcp -e 1040 -c 2 -a 0 -i 57 -k RTR
h -t 0.249454999 -s 1 -d 0 -p tcp -e 1040 -c 2 -a 0 -i 57 -k RTR
r -t 0.259360117 -s 0 -d 0 -p tcp -e 1040 -c 2 -a 0 -i 33 -k AGT
+ -t 0.259360117 -s 0 -d -1 -p ack -e 40 -c 2 -a 0 -i 58 -k AGT 
- -t 0.259360117 -s 0 -d -1 -p ack -e 40 -c 2 -a 0 -i 58 -k AGT
h -t 0.259360117 -s 0 -d -1 -p ack -e 40 -c 2 -a 0 -i 58 -k AGT
+ -t 0.259360117 -s 0 -d 1 -p ack -e 40 -c 2 -a 0 -i 58 -k RTR 
- -t 0.259360117 -s 0 -d 1 -p ack -e 40 -c 2 -a 0 -i 58 -k RTR
h -t 0.259360117 -s 0 -d 1 -p ack -e 40 -c 2 -a 0 -i 58 -k RTR
r -t 0.261245235 -s 1 -d 1 -p ack -e 40 -c 2 -a 0 -i 49 -k AGT
+ -t 0.261245235 -s 1 -d -1 -p tcp -e 1040 -c 2 -a 0 -i 59 -k AGT 
- -t 0.261245235 -s 1 -d -1 -p tcp -e 1040 -c 2 -a 0 -i 59 -k AGT
h -t 0.261245235 -s 1 -d -1 -p tcp -e 1040 -c 2 -a 0 -i 59 -k AGT
+ -t 0.261245235 -s 1 -d -1 -p tcp -e 1040 -c 2 -a 0 -i 60 -k AGT 
- -t 0.261245235 -s 1 -d -1 -p tcp -e 1040 -c 2 -a 0 -i 60 -k AGT
h -t 0.261245235 -s 1 -d -1 -p tcp -e 1040 -c 2 -a 0 -i 60 -k AGT
+ -t 0.261245235 -s 1 -d 0 -p tcp -e 1040 -c 2 -a 0 -i 59 -k RTR 
- -t 0.261245235 -s 1 -d 0 -p tcp -e 1040 -c 2 -a 0 -i 59 -k RTR
h -t 0.261245235 -s 1 -d 0 -p tcp -e 1040 -c 2 -a 0 -i 59 -k RTR
+ -t 0.261245235 -s 1 -d 0 -p tcp -e 1040 -c 2 -a 0 -i 60 -k RTR 
- -t 0.261245235 -s 1 -d 0 -p tcp -e 1040 -c 2 -a 0 -i 60 -k RTR
h -t 0.261245235 -s 1 -d 0 -p tcp -e 1040 -c 2 -a 0 -i 60 -k RTR
r -t 0.263170726 -s 1 -d 1 -p ack -e 40 -c 2 -a 0 -i 54 -k AGT
+ -t 0.263170726 -s 1 -d -1 -p tcp -e 1040 -c 2 -a 0 -i 61 -k AGT 
- -t 0.263170726 -s 1 -d -1 -p tcp -e 1040 -c 2 -a 0 -i 61 -k AGT
h -t 0.263170726 -s 1 -d -1 -p tcp -e 1040 -c 2 -a 0 -i 61 -k AGT
+ -t 0.263170726 -s 1 -d 0 -p tcp -e 1040 -c 2 -a 0 -i 61 -k RTR 
- -t 0.263170726 -s 1 -d 0 -p tcp -e 1040 -c 2 -a 0 -i 61 -k RTR
h -t 0.263170726 -s 1 -d 0 -p tcp -e 1040 -c 2 -a 0 -i 61 -k RTR
r -t 0.273035844 -s 0 -d 0 -p tcp -e 1040 -c 2 -a 0 -i 34 -k AGT
+ -t 0.273035844 -s 0 -d -1 -p ack -e 40 -c 2 -a 0 -i 62 -k AGT 
- -t 0.273035844 -s 0 -d -1 -p ack -e 40 -c 2 -a 0 -i 62 -k AGT
h -t 0.273035844 -s 0 -d -1 -p ack -e 40 -c 2 -a 0 -i 62 -k AGT
+ -t 0.273035844 -s 0 -d 1 -p ack -e 40 -c 2 -a 0 -i 62 -k RTR 
- -t 0.273035844 -s 0 -d 1 -p ack -e 40 -c 2 -a 0 -i 62 -k RTR
h -t 0.273035844 -s 0 -d 1 -p ack -e 40 -c 2 -a 0 -i 62 -k RTR
r -t 0.274920962 -s 1 -d 1 -p ack -e 40 -c 2 -a 0 -i 55 -k AGT