s 0.000000000 _1_ AGT  --- 0 tcp 40 [0 0 0 0] [energy 20.000000 ei 0.000 es 0.000 et 0.000 er 0.000] ------- [1:0 0:0 32 0] [0 0] 0 0
r 0.000000000 _1_ RTR  --- 0 tcp 40 [0 0 0 0] [energy 20.000000 ei 0.000 es 0.000 et 0.000 er 0.000] ------- [1:0 0:0 32 0] [0 0] 0 0
s 0.000000000 _1_ RTR  --- 0 AODV 48 [0 0 0 0] [energy 20.000000 ei 0.000 es 0.000 et 0.000 er 0.000] ------- [1:255 -1:255 30 0] [0x2 1 1 [0 0] [1 4]] (REQUEST)
N -t 0.000075 -n 0 -e 19.999941
N -t 0.000075 -n 3 -e 19.999941
N -t 0.000075 -n 2 -e 19.999941
N -t 0.000075 -n 4 -e 19.999941
r 0.000948373 _0_ RTR  --- 0 AODV 48 [0 ffffffff 1 800] [energy 19.999941 ei 0.000 es 0.000 et 0.000 er 0.000] ------- [1:255 -1:255 30 0] [0x2 1 1 [0 0] [1 4]] (REQUEST)
r 0.000948373 _3_ RTR  --- 0 AODV 48 [0 ffffffff 1 800] [energy 19.999941 ei 0.000 es 0.000 et 0.000 er 0.000] ------- [1:255 -1:255 30 0] [0x2 1 1 [0 0] [1 4]] (REQUEST)
s 0.000948373 _0_ RTR  --- 0 AODV 44 [0 0 0 0] [energy 19.999941 ei 0.000 es 0.000 et 0.000 er 0.000] ------- [0:255 1:255 30 1] [0x4 1 [0 4] 10.000000] (REPLY)
r 0.000948471 _2_ RTR  --- 0 AODV 48 [0 ffffffff 1 800] [energy 19.999941 ei 0.000 es 0.000 et 0.000 er 0.000] ------- [1:255 -1:255 30 0] [0x2 1 1 [0 0] [1 4]] (REQUEST)
r 0.000948471 _4_ RTR  --- 0 AODV 48 [0 ffffffff 1 800] [energy 19.999941 ei 0.000 es 0.000 et 0.000 er 0.000] ------- [1:255 -1:255 30 0] [0x2 1 1 [0 0] [1 4]] (REQUEST)
N -t 0.001264 -n 1 -e 19.999304
N -t 0.001264 -n 2 -e 19.999880
N -t 0.001264 -n 3 -e 19.999880
N -t 0.001264 -n 4 -e 19.999880
N -t 0.002047 -n 0 -e 19.999385
N -t 0.002047 -n 3 -e 19.999852
N -t 0.002047 -n 2 -e 19.999852
N -t 0.002047 -n 4 -e 19.999852
N -t 0.002409 -n 1 -e 19.999017
N -t 0.002410 -n 2 -e 19.999832
N -t 0.002410 -n 3 -e 19.999832
N -t 0.002410 -n 4 -e 19.999832
N -t 0.002724 -n 0 -e 19.999113
N -t 0.002724 -n 3 -e 19.999787
N -t 0.002724 -n 2 -e 19.999787
N -t 0.002724 -n 4 -e 19.999787
s 0.003294489 _2_ RTR  --- 0 AODV 48 [0 ffffffff 1 800] [energy 19.999787 ei 0.000 es 0.000 et 0.000 er 0.000] ------- [2:255 -1:255 29 0] [0x2 2 1 [0 0] [1 4]] (REQUEST)
N -t 0.003422 -n 1 -e 19.998484
N -t 0.003422 -n 2 -e 19.999767
N -t 0.003423 -n 3 -e 19.999767
N -t 0.003423 -n 4 -e 19.999767
N -t 0.003976 -n 1 -e 19.998449
N -t 0.003976 -n 2 -e 19.999731
N -t 0.003977 -n 3 -e 19.999731
N -t 0.003977 -n 4 -e 19.999731
N -t 0.004339 -n 0 -e 19.998592
N -t 0.004339 -n 3 -e 19.999711
N -t 0.004339 -n 2 -e 19.999711
N -t 0.004339 -n 4 -e 19.999711
N -t 0.004653 -n 1 -e 19.998169
N -t 0.004653 -n 2 -e 19.999658
N -t 0.004653 -n 3 -e 19.999658
N -t 0.004653 -n 4 -e 19.999658
N -t 0.005479 -n 0 -e 19.997964
N -t 0.005479 -n 3 -e 19.999637
N -t 0.005479 -n 2 -e 19.999637
N -t 0.005479 -n 4 -e 19.999637
r 0.005493981 _1_ RTR  --- 0 AODV 44 [13a 1 0 800] [energy 19.997942 ei 0.000 es 0.000 et 0.002 er 0.000] ------- [0:255 1:255 30 1] [0x4 1 [0 4] 10.000000] (REPLY)
s 0.005493981 _1_ RTR  --- 0 tcp 40 [0 0 0 0] [energy 19.997942 ei 0.000 es 0.000 et 0.002 er 0.000] ------- [1:0 0:0 30 0] [0 0] 0 0
N -t 0.006193 -n 0 -e 19.997921
N -t 0.006193 -n 3 -e 19.999594
N -t 0.006193 -n 2 -e 19.999594
N -t 0.006193 -n 4 -e 19.999594
N -t 0.006556 -n 1 -e 19.997640
N -t 0.006556 -n 2 -e 19.999574
N -t 0.006556 -n 3 -e 19.999574
N -t 0.006556 -n 4 -e 19.999574
N -t 0.006870 -n 0 -e 19.997643
N -t 0.006870 -n 3 -e 19.999523
N -t 0.006870 -n 2 -e 19.999523
N -t 0.006870 -n 4 -e 19.999523
s 0.007337123 _4_ RTR  --- 0 AODV 48 [0 ffffffff 1 800] [energy 19.999523 ei 0.000 es 0.000 et 0.000 er 0.000] ------- [4:255 -1:255 29 0] [0x2 2 1 [0 0] [1 4]] (REQUEST)
N -t 0.007664 -n 1 -e 19.997036
N -t 0.007665 -n 2 -e 19.999502
N -t 0.007665 -n 3 -e 19.999502
N -t 0.007665 -n 4 -e 19.999502
r 0.007679099 _0_ AGT  --- 0 tcp 40 [13a 0 1 800] [energy 19.997416 ei 0.000 es 0.000 et 0.002 er 0.000] ------- [1:0 0:0 30 0] [0 0] 1 0
s 0.007679099 _0_ AGT  --- 1 ack 40 [0 0 0 0] [energy 19.997416 ei 0.000 es 0.000 et 0.002 er 0.000] ------- [0:0 1:0 32 0] [0 0] 0 0
r 0.007679099 _0_ RTR  --- 1 ack 40 [0 0 0 0] [energy 19.997416 ei 0.000 es 0.000 et 0.002 er 0.000] ------- [0:0 1:0 32 0] [0 0] 0 0
s 0.007679099 _0_ RTR  --- 1 ack 40 [0 0 0 0] [energy 19.997416 ei 0.000 es 0.000 et 0.002 er 0.000] ------- [0:0 1:0 30 1] [0 0] 0 0
N -t 0.008039 -n 1 -e 19.996977
N -t 0.008039 -n 0 -e 19.997357
N -t 0.008039 -n 4 -e 19.999444
N -t 0.008039 -n 3 -e 19.999444
r 0.008912071 _1_ RTR  --- 0 AODV 48 [0 ffffffff 2 800] [energy 19.996977 ei 0.000 es 0.000 et 0.003 er 0.000] ------- [2:255 -1:255 29 0] [0x2 2 1 [0 0] [1 4]] (REQUEST)
r 0.008912099 _0_ RTR  --- 0 AODV 48 [0 ffffffff 2 800] [energy 19.997357 ei 0.000 es 0.000 et 0.002 er 0.000] ------- [2:255 -1:255 29 0] [0x2 2 1 [0 0] [1 4]] (REQUEST)
r 0.008912266 _4_ RTR  --- 0 AODV 48 [0 ffffffff 2 800] [energy 19.999444 ei 0.000 es 0.000 et 0.000 er 0.000] ------- [2:255 -1:255 29 0] [0x2 2 1 [0 0] [1 4]] (REQUEST)
r 0.008912433 _3_ RTR  --- 0 AODV 48 [0 ffffffff 2 800] [energy 19.999444 ei 0.000 es 0.000 et 0.000 er 0.000] ------- [2:255 -1:255 29 0] [0x2 2 1 [0 0] [1 4]] (REQUEST)
N -t 0.009078 -n 1 -e 19.996913
N -t 0.009078 -n 3 -e 19.999379
N -t 0.009078 -n 2 -e 19.998803
N -t 0.009078 -n 0 -e 19.997293
s 0.009113133 _3_ RTR  --- 0 AODV 48 [0 ffffffff 1 800] [energy 19.999379 ei 0.000 es 0.000 et 0.000 er 0.001] ------- [3:255 -1:255 29 0] [0x2 2 1 [0 0] [1 4]] (REQUEST)
r 0.009950738 _1_ RTR  --- 0 AODV 48 [0 ffffffff 4 800] [energy 19.996913 ei 0.000 es 0.000 et 0.003 er 0.000] ------- [4:255 -1:255 29 0] [0x2 2 1 [0 0] [1 4]] (REQUEST)
r 0.009950766 _3_ RTR  --- 0 AODV 48 [0 ffffffff 4 800] [energy 19.999379 ei 0.000 es 0.000 et 0.000 er 0.001] ------- [4:255 -1:255 29 0] [0x2 2 1 [0 0] [1 4]] (REQUEST)
r 0.009950933 _2_ RTR  --- 0 AODV 48 [0 ffffffff 4 800] [energy 19.998803 ei 0.000 es 0.000 et 0.001 er 0.000] ------- [4:255 -1:255 29 0] [0x2 2 1 [0 0] [1 4]] (REQUEST)
r 0.009951099 _0_ RTR  --- 0 AODV 48 [0 ffffffff 4 800] [energy 19.997293 ei 0.000 es 0.000 et 0.002 er 0.000] ------- [4:255 -1:255 29 0] [0x2 2 1 [0 0] [1 4]] (REQUEST)
N -t 0.010176 -n 1 -e 19.996845
N -t 0.010176 -n 4 -e 19.998736
N -t 0.010176 -n 0 -e 19.997225
N -t 0.010177 -n 2 -e 19.998736
r 0.011049139 _1_ RTR  --- 0 AODV 48 [0 ffffffff 3 800] [energy 19.996845 ei 0.000 es 0.000 et 0.003 er 0.000] ------- [3:255 -1:255 29 0] [0x2 2 1 [0 0] [1 4]] (REQUEST)
r 0.011049266 _4_ RTR  --- 0 AODV 48 [0 ffffffff 3 800] [energy 19.998736 ei 0.000 es 0.000 et 0.001 er 0.001] ------- [3:255 -1:255 29 0] [0x2 2 1 [0 0] [1 4]] (REQUEST)
r 0.011049433 _0_ RTR  --- 0 AODV 48 [0 ffffffff 3 800] [energy 19.997225 ei 0.000 es 0.000 et 0.002 er 0.000] ------- [3:255 -1:255 29 0] [0x2 2 1 [0 0] [1 4]] (REQUEST)
r 0.011049599 _2_ RTR  --- 0 AODV 48 [0 ffffffff 3 800] [energy 19.998736 ei 0.000 es 0.000 et 0.001 er 0.001] ------- [3:255 -1:255 29 0] [0x2 2 1 [0 0] [1 4]] (REQUEST)
N -t 0.011195 -n 1 -e 19.996814
N -t 0.011195 -n 2 -e 19.998705
N -t 0.011195 -n 3 -e 19.998705
N -t 0.011195 -n 4 -e 19.998705
N -t 0.011557 -n 0 -e 19.996935
N -t 0.011557 -n 3 -e 19.998684
N -t 0.011557 -n 2 -e 19.998684
N -t 0.011557 -n 4 -e 19.998684
N -t 0.011872 -n 1 -e 19.996536
N -t 0.011872 -n 2 -e 19.998633
N -t 0.011872 -n 3 -e 19.998633
N -t 0.011872 -n 4 -e 19.998633
N -t 0.012666 -n 0 -e 19.996331
N -t 0.012666 -n 3 -e 19.998613
N -t 0.012666 -n 2 -e 19.998613
N -t 0.012666 -n 4 -e 19.998613
r 0.012680551 _1_ AGT  --- 1 ack 40 [13a 1 0 800] [energy 19.996309 ei 0.000 es 0.000 et 0.003 er 0.000] ------- [0:0 1:0 30 1] [0 0] 1 0
s 0.012680551 _1_ AGT  --- 2 tcp 1040 [0 0 0 0] [energy 19.996309 ei 0.000 es 0.000 et 0.003 er 0.000] ------- [1:0 0:0 32 0] [1 0] 0 0
r 0.012680551 _1_ RTR  --- 2 tcp 1040 [0 0 0 0] [energy 19.996309 ei 0.000 es 0.000 et 0.003 er 0.000] ------- [1:0 0:0 32 0] [1 0] 0 0
s 0.012680551 _1_ AGT  --- 3 tcp 1040 [0 0 0 0] [energy 19.996309 ei 0.000 es 0.000 et 0.003 er 0.000] ------- [1:0 0:0 32 0] [2 0] 0 0
r 0.012680551 _1_ RTR  --- 3 tcp 1040 [0 0 0 0] [energy 19.996309 ei 0.000 es 0.000 et 0.003 er 0.000] ------- [1:0 0:0 32 0] [2 0] 0 0
s 0.012680551 _1_ RTR  --- 2 tcp 1040 [0 0 0 0] [energy 19.996309 ei 0.000 es 0.000 et 0.003 er 0.000] ------- [1:0 0:0 30 0] [1 0] 0 0
s 0.012680551 _1_ RTR  --- 3 tcp 1040 [0 0 0 0] [energy 19.996309 ei 0.000 es 0.000 et 0.003 er 0.000] ------- [1:0 0:0 30 0] [2 0] 0 0
N -t 0.013260 -n 0 -e 19.996293
N -t 0.013260 -n 3 -e 19.998576
N -t 0.013260 -n 2 -e 19.998576
N -t 0.013260 -n 4 -e 19.998576
N -t 0.013622 -n 1 -e 19.996012
N -t 0.013622 -n 2 -e 19.998555
N -t 0.013623 -n 3 -e 19.998555
N -t 0.013623 -n 4 -e 19.998555
N -t 0.013937 -n 0 -e 19.995497
N -t 0.013937 -n 3 -e 19.997986
N -t 0.013937 -n 2 -e 19.997986
N -t 0.013937 -n 4 -e 19.997986
N -t 0.022731 -n 1 -e 19.989456
N -t 0.022731 -n 2 -e 19.997965
N -t 0.022731 -n 3 -e 19.997965
N -t 0.022732 -n 4 -e 19.997965
r 0.022745669 _0_ AGT  --- 2 tcp 1040 [13a 0 1 800] [energy 19.995270 ei 0.000 es 0.000 et 0.004 er 0.001] ------- [1:0 0:0 30 0] [1 0] 1 0
s 0.022745669 _0_ AGT  --- 4 ack 40 [0 0 0 0] [energy 19.995270 ei 0.000 es 0.000 et 0.004 er 0.001] ------- [0:0 1:0 32 0] [1 0] 0 0
r 0.022745669 _0_ RTR  --- 4 ack 40 [0 0 0 0] [energy 19.995270 ei 0.000 es 0.000 et 0.004 er 0.001] ------- [0:0 1:0 32 0] [1 0] 0 0
s 0.022745669 _0_ RTR  --- 4 ack 40 [0 0 0 0] [energy 19.995270 ei 0.000 es 0.000 et 0.004 er 0.001] ------- [0:0 1:0 30 1] [1 0] 0 0
N -t 0.023265 -n 0 -e 19.995236
N -t 0.023265 -n 3 -e 19.997931
N -t 0.023266 -n 2 -e 19.997931
N -t 0.023266 -n 4 -e 19.997931
N -t 0.023628 -n 1 -e 19.989163
N -t 0.023628 -n 2 -e 19.997911
N -t 0.023628 -n 3 -e 19.997911
N -t 0.023628 -n 4 -e 19.997911
N -t 0.023942 -n 0 -e 19.994440
N -t 0.023942 -n 3 -e 19.997341
N -t 0.023942 -n 2 -e 19.997341
N -t 0.023942 -n 4 -e 19.997341
N -t 0.032737 -n 1 -e 19.982607
N -t 0.032737 -n 2 -e 19.997321
N -t 0.032737 -n 3 -e 19.997321
N -t 0.032737 -n 4 -e 19.997321
r 0.032751160 _0_ AGT  --- 3 tcp 1040 [13a 0 1 800] [energy 19.994213 ei 0.000 es 0.000 et 0.004 er 0.002] ------- [1:0 0:0 30 0] [2 0] 1 0
s 0.032751160 _0_ AGT  --- 5 ack 40 [0 0 0 0] [energy 19.994213 ei 0.000 es 0.000 et 0.004 er 0.002] ------- [0:0 1:0 32 0] [2 0] 0 0
r 0.032751160 _0_ RTR  --- 5 ack 40 [0 0 0 0] [energy 19.994213 ei 0.000 es 0.000 et 0.004 er 0.002] ------- [0:0 1:0 32 0] [2 0] 0 0
s 0.032751160 _0_ RTR  --- 5 ack 40 [0 0 0 0] [energy 19.994213 ei 0.000 es 0.000 et 0.004 er 0.002] ------- [0:0 1:0 30 1] [2 0] 0 0
N -t 0.033111 -n 1 -e 19.982580
N -t 0.033111 -n 2 -e 19.997295
N -t 0.033111 -n 3 -e 19.997295
N -t 0.033111 -n 4 -e 19.997295
N -t 0.033473 -n 0 -e 19.993927
N -t 0.033473 -n 3 -e 19.997274
N -t 0.033473 -n 2 -e 19.997274
N -t 0.033473 -n 4 -e 19.997274
N -t 0.033787 -n 1 -e 19.982302
N -t 0.033787 -n 2 -e 19.997223
N -t 0.033788 -n 3 -e 19.997223
N -t 0.033788 -n 4 -e 19.997223
N -t 0.034582 -n 0 -e 19.993323
N -t 0.034582 -n 3 -e 19.997203
N -t 0.034582 -n 2 -e 19.997203
N -t 0.034582 -n 4 -e 19.997203
r 0.034596278 _1_ AGT  --- 4 ack 40 [13a 1 0 800] [energy 19.982076 ei 0.000 es 0.000 et 0.017 er 0.001] ------- [0:0 1:0 30 1] [1 0] 1 0
s 0.034596278 _1_ AGT  --- 6 tcp 1040 [0 0 0 0] [energy 19.982076 ei 0.000 es 0.000 et 0.017 er 0.001] ------- [1:0 0:0 32 0] [3 0] 0 0
r 0.034596278 _1_ RTR  --- 6 tcp 1040 [0 0 0 0] [energy 19.982076 ei 0.000 es 0.000 et 0.017 er 0.001] ------- [1:0 0:0 32 0] [3 0] 0 0
s 0.034596278 _1_ AGT  --- 7 tcp 1040 [0 0 0 0] [energy 19.982076 ei 0.000 es 0.000 et 0.017 er 0.001] ------- [1:0 0:0 32 0] [4 0] 0 0
r 0.034596278 _1_ RTR  --- 7 tcp 1040 [0 0 0 0] [energy 19.982076 ei 0.000 es 0.000 et 0.017 er 0.001] ------- [1:0 0:0 32 0] [4 0] 0 0
s 0.034596278 _1_ RTR  --- 6 tcp 1040 [0 0 0 0] [energy 19.982076 ei 0.000 es 0.000 et 0.017 er 0.001] ------- [1:0 0:0 30 0] [3 0] 0 0
s 0.034596278 _1_ RTR  --- 7 tcp 1040 [0 0 0 0] [energy 19.982076 ei 0.000 es 0.000 et 0.017 er 0.001] ------- [1:0 0:0 30 0] [4 0] 0 0
N -t 0.035336 -n 1 -e 19.982030
N -t 0.035336 -n 2 -e 19.997158
N -t 0.035336 -n 3 -e 19.997157
N -t 0.035336 -n 4 -e 19.997157
N -t 0.035698 -n 0 -e 19.993019
N -t 0.035698 -n 3 -e 19.997137
N -t 0.035698 -n 2 -e 19.997137
N -t 0.035698 -n 4 -e 19.997137
N -t 0.036013 -n 1 -e 19.981752
N -t 0.036013 -n 2 -e 19.997086
N -t 0.036013 -n 3 -e 19.997086
N -t 0.036013 -n 4 -e 19.997086
N -t 0.036807 -n 0 -e 19.992415
N -t 0.036807 -n 3 -e 19.997066
N -t 0.036807 -n 2 -e 19.997066
N -t 0.036807 -n 4 -e 19.997066
r 0.036821768 _1_ AGT  --- 5 ack 40 [13a 1 0 800] [energy 19.981526 ei 0.000 es 0.000 et 0.018 er 0.001] ------- [0:0 1:0 30 1] [2 0] 1 0
s 0.036821768 _1_ AGT  --- 8 tcp 1040 [0 0 0 0] [energy 19.981526 ei 0.000 es 0.000 et 0.018 er 0.001] ------- [1:0 0:0 32 0] [5 0] 0 0
r 0.036821768 _1_ RTR  --- 8 tcp 1040 [0 0 0 0] [energy 19.981526 ei 0.000 es 0.000 et 0.018 er 0.001] ------- [1:0 0:0 32 0] [5 0] 0 0
s 0.036821768 _1_ AGT  --- 9 tcp 1040 [0 0 0 0] [energy 19.981526 ei 0.000 es 0.000 et 0.018 er 0.001] ------- [1:0 0:0 32 0] [6 0] 0 0
r 0.036821768 _1_ RTR  --- 9 tcp 1040 [0 0 0 0] [energy 19.981526 ei 0.000 es 0.000 et 0.018 er 0.001] ------- [1:0 0:0 32 0] [6 0] 0 0
s 0.036821768 _1_ RTR  --- 8 tcp 1040 [0 0 0 0] [energy 19.981526 ei 0.000 es 0.000 et 0.018 er 0.001] ------- [1:0 0:0 30 0] [5 0] 0 0
s 0.036821768 _1_ RTR  --- 9 tcp 1040 [0 0 0 0] [energy 19.981526 ei 0.000 es 0.000 et 0.018 er 0.001] ------- [1:0 0:0 30 0] [6 0] 0 0
N -t 0.037341 -n 0 -e 19.992380
N -t 0.037341 -n 3 -e 19.997031
N -t 0.037341 -n 2 -e 19.997031
N -t 0.037341 -n 4 -e 19.997031
N -t 0.037704 -n 1 -e 19.981232
N -t 0.037704 -n 2 -e 19.997011
N -t 0.037704 -n 3 -e 19.997011
N -t 0.037704 -n 4 -e 19.997011
N -t 0.038018 -n 0 -e 19.991584
N -t 0.038018 -n 3 -e 19.996442
N -t 0.038018 -n 2 -e 19.996442
N -t 0.038018 -n 4 -e 19.996442
N -t 0.046812 -n 1 -e 19.974676
N -t 0.046812 -n 2 -e 19.996421
N -t 0.046813 -n 3 -e 19.996421
N -t 0.046813 -n 4 -e 19.996421
r 0.046826886 _0_ AGT  --- 6 tcp 1040 [13a 0 1 800] [energy 19.991357 ei 0.000 es 0.000 et 0.006 er 0.002] ------- [1:0 0:0 30 0] [3 0] 1 0
s 0.046826886 _0_ AGT  --- 10 ack 40 [0 0 0 0] [energy 19.991357 ei 0.000 es 0.000 et 0.006 er 0.002] ------- [0:0 1:0 32 0] [3 0] 0 0
r 0.046826886 _0_ RTR  --- 10 ack 40 [0 0 0 0] [energy 19.991357 ei 0.000 es 0.000 et 0.006 er 0.002] ------- [0:0 1:0 32 0] [3 0] 0 0
s 0.046826886 _0_ RTR  --- 10 ack 40 [0 0 0 0] [energy 19.991357 ei 0.000 es 0.000 et 0.006 er 0.002] ------- [0:0 1:0 30 1] [3 0] 0 0
N -t 0.047527 -n 0 -e 19.991314
N -t 0.047527 -n 3 -e 19.996378
N -t 0.047527 -n 2 -e 19.996378
N -t 0.047527 -n 4 -e 19.996378
N -t 0.047889 -n 1 -e 19.974373
N -t 0.047889 -n 2 -e 19.996358
N -t 0.047889 -n 3 -e 19.996358
N -t 0.047889 -n 4 -e 19.996358
N -t 0.048203 -n 0 -e 19.990517
N -t 0.048203 -n 3 -e 19.995788
N -t 0.048203 -n 2 -e 19.995788
N -t 0.048203 -n 4 -e 19.995788
N -t 0.056998 -n 1 -e 19.967817
N -t 0.056998 -n 2 -e 19.995768
N -t 0.056998 -n 3 -e 19.995768
N -t 0.056998 -n 4 -e 19.995768
r 0.057012377 _0_ AGT  --- 7 tcp 1040 [13a 0 1 800] [energy 19.990291 ei 0.000 es 0.000 et 0.007 er 0.003] ------- [1:0 0:0 30 0] [4 0] 1 0
s 0.057012377 _0_ AGT  --- 11 ack 40 [0 0 0 0] [energy 19.990291 ei 0.000 es 0.000 et 0.007 er 0.003] ------- [0:0 1:0 32 0] [4 0] 0 0
r 0.057012377 _0_ RTR  --- 11 ack 40 [0 0 0 0] [energy 19.990291 ei 0.000 es 0.000 et 0.007 er 0.003] ------- [0:0 1:0 32 0] [4 0] 0 0
s 0.057012377 _0_ RTR  --- 11 ack 40 [0 0 0 0] [energy 19.990291 ei 0.000 es 0.000 et 0.007 er 0.003] ------- [0:0 1:0 30 1] [4 0] 0 0
N -t 0.057372 -n 1 -e 19.967791
N -t 0.057372 -n 2 -e 19.995741
N -t 0.057372 -n 3 -e 19.995741
N -t 0.057372 -n 4 -e 19.995741
N -t 0.057734 -n 0 -e 19.990005
N -t 0.057734 -n 3 -e 19.995721
N -t 0.057734 -n 2 -e 19.995721
N -t 0.057734 -n 4 -e 19.995721
N -t 0.058048 -n 1 -e 19.967513
N -t 0.058049 -n 2 -e 19.995670
N -t 0.058049 -n 3 -e 19.995670
N -t 0.058049 -n 4 -e 19.995670
N -t 0.058843 -n 0 -e 19.989401
N -t 0.058843 -n 3 -e 19.995650
N -t 0.058843 -n 2 -e 19.995650
N -t 0.058843 -n 4 -e 19.995650
r 0.058857495 _1_ AGT  --- 10 ack 40 [13a 1 0 800] [energy 19.967286 ei 0.000 es 0.000 et 0.032 er 0.001] ------- [0:0 1:0 30 1] [3 0] 1 0
s 0.058857495 _1_ AGT  --- 12 tcp 1040 [0 0 0 0] [energy 19.967286 ei 0.000 es 0.000 et 0.032 er 0.001] ------- [1:0 0:0 32 0] [7 0] 0 0
r 0.058857495 _1_ RTR  --- 12 tcp 1040 [0 0 0 0] [energy 19.967286 ei 0.000 es 0.000 et 0.032 er 0.001] ------- [1:0 0:0 32 0] [7 0] 0 0
s 0.058857495 _1_ AGT  --- 13 tcp 1040 [0 0 0 0] [energy 19.967286 ei 0.000 es 0.000 et 0.032 er 0.001] ------- [1:0 0:0 32 0] [8 0] 0 0
r 0.058857495 _1_ RTR  --- 13 tcp 1040 [0 0 0 0] [energy 19.967286 ei 0.000 es 0.000 et 0.032 er 0.001] ------- [1:0 0:0 32 0] [8 0] 0 0
s 0.058857495 _1_ RTR  --- 12 tcp 1040 [0 0 0 0] [energy 19.967286 ei 0.000 es 0.000 et 0.032 er 0.001] ------- [1:0 0:0 30 0] [7 0] 0 0
s 0.058857495 _1_ RTR  --- 13 tcp 1040 [0 0 0 0] [energy 19.967286 ei 0.000 es 0.000 et 0.032 er 0.001] ------- [1:0 0:0 30 0] [8 0] 0 0
N -t 0.059237 -n 0 -e 19.989374
N -t 0.059237 -n 3 -e 19.995622
N -t 0.059237 -n 2 -e 19.995622
N -t 0.059237 -n 4 -e 19.995622
N -t 0.059599 -n 1 -e 19.967000
N -t 0.059599 -n 2 -e 19.995602
N -t 0.059600 -n 3 -e 19.995602
N -t 0.059600 -n 4 -e 19.995602
N -t 0.059914 -n 0 -e 19.988577
N -t 0.059914 -n 3 -e 19.995032
N -t 0.059914 -n 2 -e 19.995032
N -t 0.059914 -n 4 -e 19.995032
N -t 0.068708 -n 1 -e 19.960444
N -t 0.068708 -n 2 -e 19.995012
N -t 0.068708 -n 3 -e 19.995012
N -t 0.068708 -n 4 -e 19.995012
r 0.068722613 _0_ AGT  --- 8 tcp 1040 [13a 0 1 800] [energy 19.988351 ei 0.000 es 0.000 et 0.008 er 0.004] ------- [1:0 0:0 30 0] [5 0] 1 0
s 0.068722613 _0_ AGT  --- 14 ack 40 [0 0 0 0] [energy 19.988351 ei 0.000 es 0.000 et 0.008 er 0.004] ------- [0:0 1:0 32 0] [5 0] 0 0
r 0.068722613 _0_ RTR  --- 14 ack 40 [0 0 0 0] [energy 19.988351 ei 0.000 es 0.000 et 0.008 er 0.004] ------- [0:0 1:0 32 0] [5 0] 0 0
s 0.068722613 _0_ RTR  --- 14 ack 40 [0 0 0 0] [energy 19.988351 ei 0.000 es 0.000 et 0.008 er 0.004] ------- [0:0 1:0 30 1] [5 0] 0 0
N -t 0.069342 -n 1 -e 19.960404
N -t 0.069342 -n 2 -e 19.994973
N -t 0.069342 -n 3 -e 19.994973
N -t 0.069342 -n 4 -e 19.994973
N -t 0.069704 -n 0 -e 19.988052
N -t 0.069704 -n 3 -e 19.994953
N -t 0.069704 -n 2 -e 19.994953
N -t 0.069704 -n 4 -e 19.994953
N -t 0.070019 -n 1 -e 19.960126
N -t 0.070019 -n 2 -e 19.994901
N -t 0.070019 -n 3 -e 19.994901
N -t 0.070019 -n 4 -e 19.994901
N -t 0.070813 -n 0 -e 19.987448
N -t 0.070813 -n 3 -e 19.994881
N -t 0.070813 -n 2 -e 19.994881
N -t 0.070813 -n 4 -e 19.994881
r 0.070827731 _1_ AGT  --- 11 ack 40 [13a 1 0 800] [energy 19.959900 ei 0.000 es 0.000 et 0.039 er 0.001] ------- [0:0 1:0 30 1] [4 0] 1 0
s 0.070827731 _1_ AGT  --- 15 tcp 1040 [0 0 0 0] [energy 19.959900 ei 0.000 es 0.000 et 0.039 er 0.001] ------- [1:0 0:0 32 0] [9 0] 0 0
r 0.070827731 _1_ RTR  --- 15 tcp 1040 [0 0 0 0] [energy 19.959900 ei 0.000 es 0.000 et 0.039 er 0.001] ------- [1:0 0:0 32 0] [9 0] 0 0
s 0.070827731 _1_ AGT  --- 16 tcp 1040 [0 0 0 0] [energy 19.959900 ei 0.000 es 0.000 et 0.039 er 0.001] ------- [1:0 0:0 32 0] [10 0] 0 0
r 0.070827731 _1_ RTR  --- 16 tcp 1040 [0 0 0 0] [energy 19.959900 ei 0.000 es 0.000 et 0.039 er 0.001] ------- [1:0 0:0 32 0] [10 0] 0 0
s 0.070827731 _1_ RTR  --- 15 tcp 1040 [0 0 0 0] [energy 19.959900 ei 0.000 es 0.000 et 0.039 er 0.001] ------- [1:0 0:0 30 0] [9 0] 0 0
s 0.070827731 _1_ RTR  --- 16 tcp 1040 [0 0 0 0] [energy 19.959900 ei 0.000 es 0.000 et 0.039 er 0.001] ------- [1:0 0:0 30 0] [10 0] 0 0
N -t 0.071247 -n 0 -e 19.987419
N -t 0.071247 -n 3 -e 19.994852
N -t 0.071247 -n 2 -e 19.994852
N -t 0.071247 -n 4 -e 19.994852
N -t 0.071609 -n 1 -e 19.959611
N -t 0.071610 -n 2 -e 19.994832
N -t 0.071610 -n 3 -e 19.994832
N -t 0.071610 -n 4 -e 19.994832
N -t 0.071924 -n 0 -e 19.986622
N -t 0.071924 -n 3 -e 19.994262
N -t 0.071924 -n 2 -e 19.994262
N -t 0.071924 -n 4 -e 19.994262
N -t 0.080718 -n 1 -e 19.953055
N -t 0.080718 -n 2 -e 19.994242
N -t 0.080719 -n 3 -e 19.994242
N -t 0.080719 -n 4 -e 19.994242
r 0.080732849 _0_ AGT  --- 9 tcp 1040 [13a 0 1 800] [energy 19.986396 ei 0.000 es 0.000 et 0.009 er 0.004] ------- [1:0 0:0 30 0] [6 0] 1 0
s 0.080732849 _0_ AGT  --- 17 ack 40 [0 0 0 0] [energy 19.986396 ei 0.000 es 0.000 et 0.009 er 0.004] ------- [0:0 1:0 32 0] [6 0] 0 0
r 0.080732849 _0_ RTR  --- 17 ack 40 [0 0 0 0] [energy 19.986396 ei 0.000 es 0.000 et 0.009 er 0.004] ------- [0:0 1:0 32 0] [6 0] 0 0
s 0.080732849 _0_ RTR  --- 17 ack 40 [0 0 0 0] [energy 19.986396 ei 0.000 es 0.000 et 0.009 er 0.004] ------- [0:0 1:0 30 1] [6 0] 0 0
N -t 0.081132 -n 1 -e 19.953027
N -t 0.081132 -n 2 -e 19.994213
N -t 0.081133 -n 3 -e 19.994213
N -t 0.081133 -n 4 -e 19.994213
N -t 0.081495 -n 0 -e 19.986108
N -t 0.081495 -n 3 -e 19.994193
N -t 0.081495 -n 2 -e 19.994193
N -t 0.081495 -n 4 -e 19.994193
N -t 0.081809 -n 1 -e 19.952749
N -t 0.081809 -n 2 -e 19.994142
N -t 0.081809 -n 3 -e 19.994142
N -t 0.081809 -n 4 -e 19.994142
N -t 0.082603 -n 0 -e 19.985504
N -t 0.082603 -n 3 -e 19.994122
N -t 0.082603 -n 2 -e 19.994122
N -t 0.082603 -n 4 -e 19.994122
r 0.082617967 _1_ AGT  --- 14 ack 40 [13a 1 0 800] [energy 19.952522 ei 0.000 es 0.000 et 0.046 er 0.001] ------- [0:0 1:0 30 1] [5 0] 1 0
s 0.082617967 _1_ AGT  --- 18 tcp 1040 [0 0 0 0] [energy 19.952522 ei 0.000 es 0.000 et 0.046 er 0.001] ------- [1:0 0:0 32 0] [11 0] 0 0
r 0.082617967 _1_ RTR  --- 18 tcp 1040 [0 0 0 0] [energy 19.952522 ei 0.000 es 0.000 et 0.046 er 0.001] ------- [1:0 0:0 32 0] [11 0] 0 0
s 0.082617967 _1_ AGT  --- 19 tcp 1040 [0 0 0 0] [energy 19.952522 ei 0.000 es 0.000 et 0.046 er 0.001] ------- [1:0 0:0 32 0] [12 0] 0 0
r 0.082617967 _1_ RTR  --- 19 tcp 1040 [0 0 0 0] [energy 19.952522 ei 0.000 es 0.000 et 0.046 er 0.001] ------- [1:0 0:0 32 0] [12 0] 0 0
s 0.082617967 _1_ RTR  --- 18 tcp 1040 [0 0 0 0] [energy 19.952522 ei 0.000 es 0.000 et 0.046 er 0.001] ------- [1:0 0:0 30 0] [11 0] 0 0
s 0.082617967 _1_ RTR  --- 19 tcp 1040 [0 0 0 0] [energy 19.952522 ei 0.000 es 0.000 et 0.046 er 0.001] ------- [1:0 0:0 30 0] [12 0] 0 0
N -t 0.082977 -n 0 -e 19.985478
N -t 0.082977 -n 3 -e 19.994095
N -t 0.082977 -n 2 -e 19.994095
N -t 0.082977 -n 4 -e 19.994095
N -t 0.083340 -n 1 -e 19.952236
N -t 0.083340 -n 2 -e 19.994075
N -t 0.083340 -n 3 -e 19.994075
N -t 0.083340 -n 4 -e 19.994075
N -t 0.083654 -n 0 -e 19.984681
N -t 0.083654 -n 3 -e 19.993505
N -t 0.083654 -n 2 -e 19.993505
N -t 0.083654 -n 4 -e 19.993505
N -t 0.092448 -n 1 -e 19.945680
N -t 0.092449 -n 2 -e 19.993485
N -t 0.092449 -n 3 -e 19.993485
N -t 0.092449 -n 4 -e 19.993485
r 0.092463085 _0_ AGT  --- 12 tcp 1040 [13a 0 1 800] [energy 19.984455 ei 0.000 es 0.000 et 0.011 er 0.005] ------- [1:0 0:0 30 0] [7 0] 1 0
s 0.092463085 _0_ AGT  --- 20 ack 40 [0 0 0 0] [energy 19.984455 ei 0.000 es 0.000 et 0.011 er 0.005] ------- [0:0 1:0 32 0] [7 0] 0 0
r 0.092463085 _0_ RTR  --- 20 ack 40 [0 0 0 0] [energy 19.984455 ei 0.000 es 0.000 et 0.011 er 0.005] ------- [0:0 1:0 32 0] [7 0] 0 0
s 0.092463085 _0_ RTR  --- 20 ack 40 [0 0 0 0] [energy 19.984455 ei 0.000 es 0.000 et 0.011 er 0.005] ------- [0:0 1:0 30 1] [7 0] 0 0
N -t 0.093003 -n 0 -e 19.984419
N -t 0.093003 -n 3 -e 19.993450
N -t 0.093003 -n 2 -e 19.993450
N -t 0.093003 -n 4 -e 19.993450
N -t 0.093365 -n 1 -e 19.945386
N -t 0.093365 -n 2 -e 19.993430
N -t 0.093365 -n 3 -e 19.993430
N -t 0.093366 -n 4 -e 19.993430
N -t 0.093680 -n 0 -e 19.983623
N -t 0.093680 -n 3 -e 19.992860
N -t 0.093680 -n 2 -e 19.992860
N -t 0.093680 -n 4 -e 19.992860
N -t 0.102474 -n 1 -e 19.938830
N -t 0.102474 -n 2 -e 19.992840
N -t 0.102474 -n 3 -e 19.992840
N -t 0.102474 -n 4 -e 19.992840
r 0.102488576 _0_ AGT  --- 13 tcp 1040 [13a 0 1 800] [energy 19.983396 ei 0.000 es 0.000 et 0.011 er 0.005] ------- [1:0 0:0 30 0] [8 0] 1 0
s 0.102488576 _0_ AGT  --- 21 ack 40 [0 0 0 0] [energy 19.983396 ei 0.000 es 0.000 et 0.011 er 0.005] ------- [0:0 1:0 32 0] [8 0] 0 0
r 0.102488576 _0_ RTR  --- 21 ack 40 [0 0 0 0] [energy 19.983396 ei 0.000 es 0.000 et 0.011 er 0.005] ------- [0:0 1:0 32 0] [8 0] 0 0
s 0.102488576 _0_ RTR  --- 21 ack 40 [0 0 0 0] [energy 19.983396 ei 0.000 es 0.000 et 0.011 er 0.005] ------- [0:0 1:0 30 1] [8 0] 0 0
N -t 0.102888 -n 1 -e 19.938801
N -t 0.102888 -n 2 -e 19.992811
N -t 0.102888 -n 3 -e 19.992811
N -t 0.102888 -n 4 -e 19.992811
N -t 0.103250 -n 0 -e 19.983109
N -t 0.103250 -n 3 -e 19.992791
N -t 0.103250 -n 2 -e 19.992791
N -t 0.103250 -n 4 -e 19.992791
N -t 0.103565 -n 1 -e 19.938523
N -t 0.103565 -n 2 -e 19.992740
N -t 0.103565 -n 3 -e 19.992740
N -t 0.103565 -n 4 -e 19.992740
N -t 0.104359 -n 0 -e 19.982504
N -t 0.104359 -n 3 -e 19.992720
N -t 0.104359 -n 2 -e 19.992720
N -t 0.104359 -n 4 -e 19.992720
r 0.104373694 _1_ AGT  --- 17 ack 40 [13a 1 0 800] [energy 19.938297 ei 0.000 es 0.000 et 0.060 er 0.001] ------- [0:0 1:0 30 1] [6 0] 1 0
s 0.104373694 _1_ AGT  --- 22 tcp 1040 [0 0 0 0] [energy 19.938297 ei 0.000 es 0.000 et 0.060 er 0.001] ------- [1:0 0:0 32 0] [13 0] 0 0
r 0.104373694 _1_ RTR  --- 22 tcp 1040 [0 0 0 0] [energy 19.938297 ei 0.000 es 0.000 et 0.060 er 0.001] ------- [1:0 0:0 32 0] [13 0] 0 0
s 0.104373694 _1_ AGT  --- 23 tcp 1040 [0 0 0 0] [energy 19.938297 ei 0.000 es 0.000 et 0.060 er 0.001] ------- [1:0 0:0 32 0] [14 0] 0 0
r 0.104373694 _1_ RTR  --- 23 tcp 1040 [0 0 0 0] [energy 19.938297 ei 0.000 es 0.000 et 0.060 er 0.001] ------- [1:0 0:0 32 0] [14 0] 0 0
s 0.104373694 _1_ RTR  --- 22 tcp 1040 [0 0 0 0] [energy 19.938297 ei 0.000 es 0.000 et 0.060 er 0.001] ------- [1:0 0:0 30 0] [13 0] 0 0
s 0.104373694 _1_ RTR  --- 23 tcp 1040 [0 0 0 0] [energy 19.938297 ei 0.000 es 0.000 et 0.060 er 0.001] ------- [1:0 0:0 30 0] [14 0] 0 0
N -t 0.104753 -n 0 -e 19.982477
N -t 0.104753 -n 3 -e 19.992692
N -t 0.104753 -n 2 -e 19.992692
N -t 0.104753 -n 4 -e 19.992692
N -t 0.105115 -n 1 -e 19.938010
N -t 0.105116 -n 2 -e 19.992672
N -t 0.105116 -n 3 -e 19.992672
N -t 0.105116 -n 4 -e 19.992672
N -t 0.105430 -n 0 -e 19.981681
N -t 0.105430 -n 3 -e 19.992102
N -t 0.105430 -n 2 -e 19.992102
N -t 0.105430 -n 4 -e 19.992102
N -t 0.114224 -n 1 -e 19.931454
N -t 0.114224 -n 2 -e 19.992082
N -t 0.114224 -n 3 -e 19.992082
N -t 0.114225 -n 4 -e 19.992082
r 0.114238812 _0_ AGT  --- 15 tcp 1040 [13a 0 1 800] [energy 19.981454 ei 0.000 es 0.000 et 0.012 er 0.006] ------- [1:0 0:0 30 0] [9 0] 1 0
s 0.114238812 _0_ AGT  --- 24 ack 40 [0 0 0 0] [energy 19.981454 ei 0.000 es 0.000 et 0.012 er 0.006] ------- [0:0 1:0 32 0] [9 0] 0 0
r 0.114238812 _0_ RTR  --- 24 ack 40 [0 0 0 0] [energy 19.981454 ei 0.000 es 0.000 et 0.012 er 0.006] ------- [0:0 1:0 32 0] [9 0] 0 0
s 0.114238812 _0_ RTR  --- 24 ack 40 [0 0 0 0] [energy 19.981454 ei 0.000 es 0.000 et 0.012 er 0.006] ------- [0:0 1:0 30 1] [9 0] 0 0
N -t 0.114799 -n 0 -e 19.981418
N -t 0.114799 -n 3 -e 19.992046
N -t 0.114799 -n 2 -e 19.992046
N -t 0.114799 -n 4 -e 19.992046
N -t 0.115161 -n 1 -e 19.931158
N -t 0.115161 -n 2 -e 19.992026
N -t 0.115161 -n 3 -e 19.992026
N -t 0.115161 -n 4 -e 19.992026
N -t 0.115475 -n 0 -e 19.980621
N -t 0.115475 -n 3 -e 19.991456
N -t 0.115475 -n 2 -e 19.991456
N -t 0.115475 -n 4 -e 19.991456
N -t 0.124270 -n 1 -e 19.924602
N -t 0.124270 -n 2 -e 19.991436
N -t 0.124270 -n 3 -e 19.991436
N -t 0.124270 -n 4 -e 19.991436
r 0.124284303 _0_ AGT  --- 16 tcp 1040 [13a 0 1 800] [energy 19.980395 ei 0.000 es 0.000 et 0.013 er 0.007] ------- [1:0 0:0 30 0] [10 0] 1 0
s 0.124284303 _0_ AGT  --- 25 ack 40 [0 0 0 0] [energy 19.980395 ei 0.000 es 0.000 et 0.013 er 0.007] ------- [0:0 1:0 32 0] [10 0] 0 0
r 0.124284303 _0_ RTR  --- 25 ack 40 [0 0 0 0] [energy 19.980395 ei 0.000 es 0.000 et 0.013 er 0.007] ------- [0:0 1:0 32 0] [10 0] 0 0
s 0.124284303 _0_ RTR  --- 25 ack 40 [0 0 0 0] [energy 19.980395 ei 0.000 es 0.000 et 0.013 er 0.007] ------- [0:0 1:0 30 1] [10 0] 0 0
N -t 0.124824 -n 0 -e 19.980359
N -t 0.124824 -n 3 -e 19.991400
N -t 0.124824 -n 2 -e 19.991400
N -t 0.124824 -n 4 -e 19.991400
N -t 0.125186 -n 1 -e 19.924308
N -t 0.125187 -n 2 -e 19.991380
N -t 0.125187 -n 3 -e 19.991380
N -t 0.125187 -n 4 -e 19.991380
N -t 0.125501 -n 0 -e 19.979563
N -t 0.125501 -n 3 -e 19.990810
N -t 0.125501 -n 2 -e 19.990810
N -t 0.125501 -n 4 -e 19.990810
N -t 0.134295 -n 1 -e 19.917752
N -t 0.134295 -n 2 -e 19.990790
N -t 0.134295 -n 3 -e 19.990790
N -t 0.134296 -n 4 -e 19.990790
r 0.134309793 _0_ AGT  --- 18 tcp 1040 [13a 0 1 800] [energy 19.979336 ei 0.000 es 0.000 et 0.013 er 0.007] ------- [1:0 0:0 30 0] [11 0] 1 0
s 0.134309793 _0_ AGT  --- 26 ack 40 [0 0 0 0] [energy 19.979336 ei 0.000 es 0.000 et 0.013 er 0.007] ------- [0:0 1:0 32 0] [11 0] 0 0
r 0.134309793 _0_ RTR  --- 26 ack 40 [0 0 0 0] [energy 19.979336 ei 0.000 es 0.000 et 0.013 er 0.007] ------- [0:0 1:0 32 0] [11 0] 0 0
s 0.134309793 _0_ RTR  --- 26 ack 40 [0 0 0 0] [energy 19.979336 ei 0.000 es 0.000 et 0.013 er 0.007] ------- [0:0 1:0 30 1] [11 0] 0 0
N -t 0.134709 -n 1 -e 19.917723
N -t 0.134709 -n 2 -e 19.990762
N -t 0.134709 -n 3 -e 19.990762
N -t 0.134710 -n 4 -e 19.990762
N -t 0.135072 -n 0 -e 19.979049
N -t 0.135072 -n 3 -e 19.990742
N -t 0.135072 -n 2 -e 19.990742
N -t 0.135072 -n 4 -e 19.990742
N -t 0.135386 -n 1 -e 19.917445
N -t 0.135386 -n 2 -e 19.990690
N -t 0.135386 -n 3 -e 19.990690
N -t 0.135386 -n 4 -e 19.990690
N -t 0.136180 -n 0 -e 19.978445
N -t 0.136180 -n 3 -e 19.990670
N -t 0.136180 -n 2 -e 19.990670
N -t 0.136180 -n 4 -e 19.990670
r 0.136194912 _1_ AGT  --- 20 ack 40 [13a 1 0 800] [energy 19.917219 ei 0.000 es 0.000 et 0.081 er 0.001] ------- [0:0 1:0 30 1] [7 0] 1 0
s 0.136194912 _1_ AGT  --- 27 tcp 1040 [0 0 0 0] [energy 19.917219 ei 0.000 es 0.000 et 0.081 er 0.001] ------- [1:0 0:0 32 0] [15 0] 0 0
r 0.136194912 _1_ RTR  --- 27 tcp 1040 [0 0 0 0] [energy 19.917219 ei 0.000 es 0.000 et 0.081 er 0.001] ------- [1:0 0:0 32 0] [15 0] 0 0
s 0.136194912 _1_ AGT  --- 28 tcp 1040 [0 0 0 0] [energy 19.917219 ei 0.000 es 0.000 et 0.081 er 0.001] ------- [1:0 0:0 32 0] [16 0] 0 0
r 0.136194912 _1_ RTR  --- 28 tcp 1040 [0 0 0 0] [energy 19.917219 ei 0.000 es 0.000 et 0.081 er 0.001] ------- [1:0 0:0 32 0] [16 0] 0 0